
.Version 10.0.3 of ABINIT, released Apr 2024.
.(MPI version, prepared for a x86_64_linux_intel2021.10 computer) 

.Copyright (C) 1998-2024 ABINIT group . 
 ABINIT comes with ABSOLUTELY NO WARRANTY.
 It is free software, and you are welcome to redistribute it
 under certain conditions (GNU General Public License,
 see ~abinit/COPYING or http://www.gnu.org/copyleft/gpl.txt).

 ABINIT is a project of the Universite Catholique de Louvain,
 Corning Inc. and other collaborators, see ~abinit/doc/developers/contributors.txt .
 Please read https://docs.abinit.org/theory/acknowledgments for suggested
 acknowledgments of the ABINIT effort.
 For more information, see https://www.abinit.org .

.Starting date : Thu 23 May 2024.
- ( at 17h52 )
  
- input  file    -> ecut.abi
- output file    -> ecut.abo
- root for input  files -> ecuti
- root for output files -> ecuto
 
 DATASET   11 : space group F-4 3 m (#216); Bravais cF (face-center cubic)
================================================================================
 Values of the parameters that define the memory need for DATASET 11.
     intxc =       0    ionmov =       0      iscf =       7    lmnmax =       8
     lnmax =       8     mgfft =      36  mpssoang =       3    mqgrid =    3001
     natom =       2  nloc_mem =       1    nspden =       1   nspinor =       1
    nsppol =       1      nsym =      24    n1xccc =    2501    ntypat =       2
    occopt =       1   xclevel =       2
-    mband =          15        mffmem =           1         mkmem =          16
       mpw =        1614          nfft =       46656          nkpt =          16
================================================================================
P This job should need less than                      22.546 Mbytes of memory.
  Rough estimation (10% accuracy) of disk space for files :
_ WF disk file :      5.913 Mbytes ; DEN or POT disk file :      0.358 Mbytes.
================================================================================
 
 DATASET   21 : space group F-4 3 m (#216); Bravais cF (face-center cubic)
================================================================================
 Values of the parameters that define the memory need for DATASET 21.
     intxc =       0    ionmov =       0      iscf =       7    lmnmax =       8
     lnmax =       8     mgfft =      36  mpssoang =       3    mqgrid =    3001
     natom =       2  nloc_mem =       1    nspden =       1   nspinor =       1
    nsppol =       1      nsym =      24    n1xccc =    2501    ntypat =       2
    occopt =       1   xclevel =       2
-    mband =          15        mffmem =           1         mkmem =          16
       mpw =        1711          nfft =       46656          nkpt =          16
================================================================================
P This job should need less than                      22.919 Mbytes of memory.
  Rough estimation (10% accuracy) of disk space for files :
_ WF disk file :      6.268 Mbytes ; DEN or POT disk file :      0.358 Mbytes.
================================================================================
 
 DATASET   31 : space group F-4 3 m (#216); Bravais cF (face-center cubic)
================================================================================
 Values of the parameters that define the memory need for DATASET 31.
     intxc =       0    ionmov =       0      iscf =       7    lmnmax =       8
     lnmax =       8     mgfft =      36  mpssoang =       3    mqgrid =    3001
     natom =       2  nloc_mem =       1    nspden =       1   nspinor =       1
    nsppol =       1      nsym =      24    n1xccc =    2501    ntypat =       2
    occopt =       1   xclevel =       2
-    mband =          15        mffmem =           1         mkmem =          16
       mpw =        1820          nfft =       46656          nkpt =          16
================================================================================
P This job should need less than                      23.338 Mbytes of memory.
  Rough estimation (10% accuracy) of disk space for files :
_ WF disk file :      6.667 Mbytes ; DEN or POT disk file :      0.358 Mbytes.
================================================================================
 
 DATASET   41 : space group F-4 3 m (#216); Bravais cF (face-center cubic)
================================================================================
 Values of the parameters that define the memory need for DATASET 41.
     intxc =       0    ionmov =       0      iscf =       7    lmnmax =       8
     lnmax =       8     mgfft =      36  mpssoang =       3    mqgrid =    3001
     natom =       2  nloc_mem =       1    nspden =       1   nspinor =       1
    nsppol =       1      nsym =      24    n1xccc =    2501    ntypat =       2
    occopt =       1   xclevel =       2
-    mband =          15        mffmem =           1         mkmem =          16
       mpw =        1898          nfft =       46656          nkpt =          16
================================================================================
P This job should need less than                      23.649 Mbytes of memory.
  Rough estimation (10% accuracy) of disk space for files :
_ WF disk file :      6.953 Mbytes ; DEN or POT disk file :      0.358 Mbytes.
================================================================================
 
 DATASET   51 : space group F-4 3 m (#216); Bravais cF (face-center cubic)
================================================================================
 Values of the parameters that define the memory need for DATASET 51.
     intxc =       0    ionmov =       0      iscf =       7    lmnmax =       8
     lnmax =       8     mgfft =      36  mpssoang =       3    mqgrid =    3001
     natom =       2  nloc_mem =       1    nspden =       1   nspinor =       1
    nsppol =       1      nsym =      24    n1xccc =    2501    ntypat =       2
    occopt =       1   xclevel =       2
-    mband =          15        mffmem =           1         mkmem =          16
       mpw =        2006          nfft =       46656          nkpt =          16
================================================================================
P This job should need less than                      24.101 Mbytes of memory.
  Rough estimation (10% accuracy) of disk space for files :
_ WF disk file :      7.348 Mbytes ; DEN or POT disk file :      0.358 Mbytes.
================================================================================
 
 DATASET   61 : space group F-4 3 m (#216); Bravais cF (face-center cubic)
================================================================================
 Values of the parameters that define the memory need for DATASET 61.
     intxc =       0    ionmov =       0      iscf =       7    lmnmax =       8
     lnmax =       8     mgfft =      36  mpssoang =       3    mqgrid =    3001
     natom =       2  nloc_mem =       1    nspden =       1   nspinor =       1
    nsppol =       1      nsym =      24    n1xccc =    2501    ntypat =       2
    occopt =       1   xclevel =       2
-    mband =          15        mffmem =           1         mkmem =          16
       mpw =        2121          nfft =       46656          nkpt =          16
================================================================================
P This job should need less than                      24.582 Mbytes of memory.
  Rough estimation (10% accuracy) of disk space for files :
_ WF disk file :      7.769 Mbytes ; DEN or POT disk file :      0.358 Mbytes.
================================================================================
 
 DATASET   71 : space group F-4 3 m (#216); Bravais cF (face-center cubic)
================================================================================
 Values of the parameters that define the memory need for DATASET 71.
     intxc =       0    ionmov =       0      iscf =       7    lmnmax =       8
     lnmax =       8     mgfft =      40  mpssoang =       3    mqgrid =    3001
     natom =       2  nloc_mem =       1    nspden =       1   nspinor =       1
    nsppol =       1      nsym =      24    n1xccc =    2501    ntypat =       2
    occopt =       1   xclevel =       2
-    mband =          15        mffmem =           1         mkmem =          16
       mpw =        2215          nfft =       64000          nkpt =          16
================================================================================
P This job should need less than                      30.424 Mbytes of memory.
  Rough estimation (10% accuracy) of disk space for files :
_ WF disk file :      8.114 Mbytes ; DEN or POT disk file :      0.490 Mbytes.
================================================================================
 
 DATASET   81 : space group F-4 3 m (#216); Bravais cF (face-center cubic)
================================================================================
 Values of the parameters that define the memory need for DATASET 81.
     intxc =       0    ionmov =       0      iscf =       7    lmnmax =       8
     lnmax =       8     mgfft =      40  mpssoang =       3    mqgrid =    3001
     natom =       2  nloc_mem =       1    nspden =       1   nspinor =       1
    nsppol =       1      nsym =      24    n1xccc =    2501    ntypat =       2
    occopt =       1   xclevel =       2
-    mband =          15        mffmem =           1         mkmem =          16
       mpw =        2318          nfft =       64000          nkpt =          16
================================================================================
P This job should need less than                      30.820 Mbytes of memory.
  Rough estimation (10% accuracy) of disk space for files :
_ WF disk file :      8.491 Mbytes ; DEN or POT disk file :      0.490 Mbytes.
================================================================================
 
 DATASET   91 : space group F-4 3 m (#216); Bravais cF (face-center cubic)
================================================================================
 Values of the parameters that define the memory need for DATASET 91.
     intxc =       0    ionmov =       0      iscf =       7    lmnmax =       8
     lnmax =       8     mgfft =      40  mpssoang =       3    mqgrid =    3001
     natom =       2  nloc_mem =       1    nspden =       1   nspinor =       1
    nsppol =       1      nsym =      24    n1xccc =    2501    ntypat =       2
    occopt =       1   xclevel =       2
-    mband =          15        mffmem =           1         mkmem =          16
       mpw =        2429          nfft =       64000          nkpt =          16
================================================================================
P This job should need less than                      31.247 Mbytes of memory.
  Rough estimation (10% accuracy) of disk space for files :
_ WF disk file :      8.897 Mbytes ; DEN or POT disk file :      0.490 Mbytes.
================================================================================
 
 DATASET  101 : space group F-4 3 m (#216); Bravais cF (face-center cubic)
================================================================================
 Values of the parameters that define the memory need for DATASET  101.
     intxc =       0    ionmov =       0      iscf =       7    lmnmax =       8
     lnmax =       8     mgfft =      40  mpssoang =       3    mqgrid =    3001
     natom =       2  nloc_mem =       1    nspden =       1   nspinor =       1
    nsppol =       1      nsym =      24    n1xccc =    2501    ntypat =       2
    occopt =       1   xclevel =       2
-    mband =          15        mffmem =           1         mkmem =          16
       mpw =        2553          nfft =       64000          nkpt =          16
================================================================================
P This job should need less than                      31.724 Mbytes of memory.
  Rough estimation (10% accuracy) of disk space for files :
_ WF disk file :      9.351 Mbytes ; DEN or POT disk file :      0.490 Mbytes.
================================================================================
 
 DATASET  111 : space group F-4 3 m (#216); Bravais cF (face-center cubic)
================================================================================
 Values of the parameters that define the memory need for DATASET  111.
     intxc =       0    ionmov =       0      iscf =       7    lmnmax =       8
     lnmax =       8     mgfft =      40  mpssoang =       3    mqgrid =    3001
     natom =       2  nloc_mem =       1    nspden =       1   nspinor =       1
    nsppol =       1      nsym =      24    n1xccc =    2501    ntypat =       2
    occopt =       1   xclevel =       2
-    mband =          15        mffmem =           1         mkmem =          16
       mpw =        2659          nfft =       64000          nkpt =          16
================================================================================
P This job should need less than                      32.146 Mbytes of memory.
  Rough estimation (10% accuracy) of disk space for files :
_ WF disk file :      9.740 Mbytes ; DEN or POT disk file :      0.490 Mbytes.
================================================================================
 
 DATASET  121 : space group F-4 3 m (#216); Bravais cF (face-center cubic)
================================================================================
 Values of the parameters that define the memory need for DATASET  121.
     intxc =       0    ionmov =       0      iscf =       7    lmnmax =       8
     lnmax =       8     mgfft =      40  mpssoang =       3    mqgrid =    3001
     natom =       2  nloc_mem =       1    nspden =       1   nspinor =       1
    nsppol =       1      nsym =      24    n1xccc =    2501    ntypat =       2
    occopt =       1   xclevel =       2
-    mband =          15        mffmem =           1         mkmem =          16
       mpw =        2761          nfft =       64000          nkpt =          16
================================================================================
P This job should need less than                      32.573 Mbytes of memory.
  Rough estimation (10% accuracy) of disk space for files :
_ WF disk file :     10.113 Mbytes ; DEN or POT disk file :      0.490 Mbytes.
================================================================================
 
 DATASET  131 : space group F-4 3 m (#216); Bravais cF (face-center cubic)
================================================================================
 Values of the parameters that define the memory need for DATASET  131.
     intxc =       0    ionmov =       0      iscf =       7    lmnmax =       8
     lnmax =       8     mgfft =      40  mpssoang =       3    mqgrid =    3001
     natom =       2  nloc_mem =       1    nspden =       1   nspinor =       1
    nsppol =       1      nsym =      24    n1xccc =    2501    ntypat =       2
    occopt =       1   xclevel =       2
-    mband =          15        mffmem =           1         mkmem =          16
       mpw =        2882          nfft =       64000          nkpt =          16
================================================================================
P This job should need less than                      33.079 Mbytes of memory.
  Rough estimation (10% accuracy) of disk space for files :
_ WF disk file :     10.556 Mbytes ; DEN or POT disk file :      0.490 Mbytes.
================================================================================
 
 DATASET  141 : space group F-4 3 m (#216); Bravais cF (face-center cubic)
================================================================================
 Values of the parameters that define the memory need for DATASET  141.
     intxc =       0    ionmov =       0      iscf =       7    lmnmax =       8
     lnmax =       8     mgfft =      45  mpssoang =       3    mqgrid =    3001
     natom =       2  nloc_mem =       1    nspden =       1   nspinor =       1
    nsppol =       1      nsym =      24    n1xccc =    2501    ntypat =       2
    occopt =       1   xclevel =       2
-    mband =          15        mffmem =           1         mkmem =          16
       mpw =        2993          nfft =       91125          nkpt =          16
================================================================================
P This job should need less than                      42.059 Mbytes of memory.
  Rough estimation (10% accuracy) of disk space for files :
_ WF disk file :     10.963 Mbytes ; DEN or POT disk file :      0.697 Mbytes.
================================================================================
 
 DATASET  151 : space group F-4 3 m (#216); Bravais cF (face-center cubic)
================================================================================
 Values of the parameters that define the memory need for DATASET  151.
     intxc =       0    ionmov =       0      iscf =       7    lmnmax =       8
     lnmax =       8     mgfft =      45  mpssoang =       3    mqgrid =    3001
     natom =       2  nloc_mem =       1    nspden =       1   nspinor =       1
    nsppol =       1      nsym =      24    n1xccc =    2501    ntypat =       2
    occopt =       1   xclevel =       2
-    mband =          15        mffmem =           1         mkmem =          16
       mpw =        3114          nfft =       91125          nkpt =          16
================================================================================
P This job should need less than                      42.524 Mbytes of memory.
  Rough estimation (10% accuracy) of disk space for files :
_ WF disk file :     11.406 Mbytes ; DEN or POT disk file :      0.697 Mbytes.
================================================================================
 
 DATASET  161 : space group F-4 3 m (#216); Bravais cF (face-center cubic)
================================================================================
 Values of the parameters that define the memory need for DATASET  161.
     intxc =       0    ionmov =       0      iscf =       7    lmnmax =       8
     lnmax =       8     mgfft =      45  mpssoang =       3    mqgrid =    3001
     natom =       2  nloc_mem =       1    nspden =       1   nspinor =       1
    nsppol =       1      nsym =      24    n1xccc =    2501    ntypat =       2
    occopt =       1   xclevel =       2
-    mband =          15        mffmem =           1         mkmem =          16
       mpw =        3242          nfft =       91125          nkpt =          16
================================================================================
P This job should need less than                      43.017 Mbytes of memory.
  Rough estimation (10% accuracy) of disk space for files :
_ WF disk file :     11.875 Mbytes ; DEN or POT disk file :      0.697 Mbytes.
================================================================================
 
 DATASET  171 : space group F-4 3 m (#216); Bravais cF (face-center cubic)
================================================================================
 Values of the parameters that define the memory need for DATASET  171.
     intxc =       0    ionmov =       0      iscf =       7    lmnmax =       8
     lnmax =       8     mgfft =      45  mpssoang =       3    mqgrid =    3001
     natom =       2  nloc_mem =       1    nspden =       1   nspinor =       1
    nsppol =       1      nsym =      24    n1xccc =    2501    ntypat =       2
    occopt =       1   xclevel =       2
-    mband =          15        mffmem =           1         mkmem =          16
       mpw =        3377          nfft =       91125          nkpt =          16
================================================================================
P This job should need less than                      43.536 Mbytes of memory.
  Rough estimation (10% accuracy) of disk space for files :
_ WF disk file :     12.369 Mbytes ; DEN or POT disk file :      0.697 Mbytes.
================================================================================
 
 DATASET  181 : space group F-4 3 m (#216); Bravais cF (face-center cubic)
================================================================================
 Values of the parameters that define the memory need for DATASET  181.
     intxc =       0    ionmov =       0      iscf =       7    lmnmax =       8
     lnmax =       8     mgfft =      45  mpssoang =       3    mqgrid =    3001
     natom =       2  nloc_mem =       1    nspden =       1   nspinor =       1
    nsppol =       1      nsym =      24    n1xccc =    2501    ntypat =       2
    occopt =       1   xclevel =       2
-    mband =          15        mffmem =           1         mkmem =          16
       mpw =        3494          nfft =       91125          nkpt =          16
================================================================================
P This job should need less than                      43.986 Mbytes of memory.
  Rough estimation (10% accuracy) of disk space for files :
_ WF disk file :     12.797 Mbytes ; DEN or POT disk file :      0.697 Mbytes.
================================================================================
 
 DATASET  191 : space group F-4 3 m (#216); Bravais cF (face-center cubic)
================================================================================
 Values of the parameters that define the memory need for DATASET  191.
     intxc =       0    ionmov =       0      iscf =       7    lmnmax =       8
     lnmax =       8     mgfft =      45  mpssoang =       3    mqgrid =    3001
     natom =       2  nloc_mem =       1    nspden =       1   nspinor =       1
    nsppol =       1      nsym =      24    n1xccc =    2501    ntypat =       2
    occopt =       1   xclevel =       2
-    mband =          15        mffmem =           1         mkmem =          16
       mpw =        3615          nfft =       91125          nkpt =          16
================================================================================
P This job should need less than                      44.451 Mbytes of memory.
  Rough estimation (10% accuracy) of disk space for files :
_ WF disk file :     13.241 Mbytes ; DEN or POT disk file :      0.697 Mbytes.
================================================================================
 
 DATASET  201 : space group F-4 3 m (#216); Bravais cF (face-center cubic)
================================================================================
 Values of the parameters that define the memory need for DATASET  201.
     intxc =       0    ionmov =       0      iscf =       7    lmnmax =       8
     lnmax =       8     mgfft =      45  mpssoang =       3    mqgrid =    3001
     natom =       2  nloc_mem =       1    nspden =       1   nspinor =       1
    nsppol =       1      nsym =      24    n1xccc =    2501    ntypat =       2
    occopt =       1   xclevel =       2
-    mband =          15        mffmem =           1         mkmem =          16
       mpw =        3730          nfft =       91125          nkpt =          16
================================================================================
P This job should need less than                      44.893 Mbytes of memory.
  Rough estimation (10% accuracy) of disk space for files :
_ WF disk file :     13.662 Mbytes ; DEN or POT disk file :      0.697 Mbytes.
================================================================================
 
 DATASET  211 : space group F-4 3 m (#216); Bravais cF (face-center cubic)
================================================================================
 Values of the parameters that define the memory need for DATASET  211.
     intxc =       0    ionmov =       0      iscf =       7    lmnmax =       8
     lnmax =       8     mgfft =      45  mpssoang =       3    mqgrid =    3001
     natom =       2  nloc_mem =       1    nspden =       1   nspinor =       1
    nsppol =       1      nsym =      24    n1xccc =    2501    ntypat =       2
    occopt =       1   xclevel =       2
-    mband =          15        mffmem =           1         mkmem =          16
       mpw =        3866          nfft =       91125          nkpt =          16
================================================================================
P This job should need less than                      45.416 Mbytes of memory.
  Rough estimation (10% accuracy) of disk space for files :
_ WF disk file :     14.160 Mbytes ; DEN or POT disk file :      0.697 Mbytes.
================================================================================
 
 DATASET  221 : space group F-4 3 m (#216); Bravais cF (face-center cubic)
================================================================================
 Values of the parameters that define the memory need for DATASET  221.
     intxc =       0    ionmov =       0      iscf =       7    lmnmax =       8
     lnmax =       8     mgfft =      48  mpssoang =       3    mqgrid =    3001
     natom =       2  nloc_mem =       1    nspden =       1   nspinor =       1
    nsppol =       1      nsym =      24    n1xccc =    2501    ntypat =       2
    occopt =       1   xclevel =       2
-    mband =          15        mffmem =           1         mkmem =          16
       mpw =        3992          nfft =      110592          nkpt =          16
================================================================================
P This job should need less than                      52.210 Mbytes of memory.
  Rough estimation (10% accuracy) of disk space for files :
_ WF disk file :     14.621 Mbytes ; DEN or POT disk file :      0.846 Mbytes.
================================================================================
 
 DATASET  231 : space group F-4 3 m (#216); Bravais cF (face-center cubic)
================================================================================
 Values of the parameters that define the memory need for DATASET  231.
     intxc =       0    ionmov =       0      iscf =       7    lmnmax =       8
     lnmax =       8     mgfft =      48  mpssoang =       3    mqgrid =    3001
     natom =       2  nloc_mem =       1    nspden =       1   nspinor =       1
    nsppol =       1      nsym =      24    n1xccc =    2501    ntypat =       2
    occopt =       1   xclevel =       2
-    mband =          15        mffmem =           1         mkmem =          16
       mpw =        4128          nfft =      110592          nkpt =          16
================================================================================
P This job should need less than                      52.733 Mbytes of memory.
  Rough estimation (10% accuracy) of disk space for files :
_ WF disk file :     15.119 Mbytes ; DEN or POT disk file :      0.846 Mbytes.
================================================================================
 
 DATASET  241 : space group F-4 3 m (#216); Bravais cF (face-center cubic)
================================================================================
 Values of the parameters that define the memory need for DATASET  241.
     intxc =       0    ionmov =       0      iscf =       7    lmnmax =       8
     lnmax =       8     mgfft =      48  mpssoang =       3    mqgrid =    3001
     natom =       2  nloc_mem =       1    nspden =       1   nspinor =       1
    nsppol =       1      nsym =      24    n1xccc =    2501    ntypat =       2
    occopt =       1   xclevel =       2
-    mband =          15        mffmem =           1         mkmem =          16
       mpw =        4248          nfft =      110592          nkpt =          16
================================================================================
P This job should need less than                      53.194 Mbytes of memory.
  Rough estimation (10% accuracy) of disk space for files :
_ WF disk file :     15.559 Mbytes ; DEN or POT disk file :      0.846 Mbytes.
================================================================================
 
 DATASET  251 : space group F-4 3 m (#216); Bravais cF (face-center cubic)
================================================================================
 Values of the parameters that define the memory need for DATASET  251.
     intxc =       0    ionmov =       0      iscf =       7    lmnmax =       8
     lnmax =       8     mgfft =      48  mpssoang =       3    mqgrid =    3001
     natom =       2  nloc_mem =       1    nspden =       1   nspinor =       1
    nsppol =       1      nsym =      24    n1xccc =    2501    ntypat =       2
    occopt =       1   xclevel =       2
-    mband =          15        mffmem =           1         mkmem =          16
       mpw =        4396          nfft =      110592          nkpt =          16
================================================================================
P This job should need less than                      53.764 Mbytes of memory.
  Rough estimation (10% accuracy) of disk space for files :
_ WF disk file :     16.101 Mbytes ; DEN or POT disk file :      0.846 Mbytes.
================================================================================
 
--------------------------------------------------------------------------------
------------- Echo of variables that govern the present computation ------------
--------------------------------------------------------------------------------
-
- outvars: echo of selected default values                                      
-   iomode0 =  0 , fftalg0 =112 , wfoptalg0 =  0
-
- outvars: echo of global parameters not present in the input file              
-  max_nthreads =    6
-
 -outvars: echo values of preprocessed input variables --------
            acell      1.0217000000E+01  1.0217000000E+01  1.0217000000E+01 Bohr
              amu      6.97230000E+01  7.49215900E+01
           diemac      1.20000000E+01
             ecut11    2.50000000E+01 Hartree
             ecut21    2.60000000E+01 Hartree
             ecut31    2.70000000E+01 Hartree
             ecut41    2.80000000E+01 Hartree
             ecut51    2.90000000E+01 Hartree
             ecut61    3.00000000E+01 Hartree
             ecut71    3.10000000E+01 Hartree
             ecut81    3.20000000E+01 Hartree
             ecut91    3.30000000E+01 Hartree
             ecut101   3.40000000E+01 Hartree
             ecut111   3.50000000E+01 Hartree
             ecut121   3.60000000E+01 Hartree
             ecut131   3.70000000E+01 Hartree
             ecut141   3.80000000E+01 Hartree
             ecut151   3.90000000E+01 Hartree
             ecut161   4.00000000E+01 Hartree
             ecut171   4.10000000E+01 Hartree
             ecut181   4.20000000E+01 Hartree
             ecut191   4.30000000E+01 Hartree
             ecut201   4.40000000E+01 Hartree
             ecut211   4.50000000E+01 Hartree
             ecut221   4.60000000E+01 Hartree
             ecut231   4.70000000E+01 Hartree
             ecut241   4.80000000E+01 Hartree
             ecut251   4.90000000E+01 Hartree
           enunit           1
-          fftalg         112
           istwfk        2    0    0    3    0    0    0    0    0    0
                         0    0    7    0    0    0
              ixc     -116133
           jdtset       11   21   31   41   51   61   71   81   91  101
                       111  121  131  141  151  161  171  181  191  201
                       211  221  231  241  251
              kpt      0.00000000E+00  0.00000000E+00  0.00000000E+00
                       1.66666667E-01  0.00000000E+00  0.00000000E+00
                       3.33333333E-01  0.00000000E+00  0.00000000E+00
                       5.00000000E-01  0.00000000E+00  0.00000000E+00
                       1.66666667E-01  1.66666667E-01  0.00000000E+00
                       3.33333333E-01  1.66666667E-01  0.00000000E+00
                       5.00000000E-01  1.66666667E-01  0.00000000E+00
                      -3.33333333E-01  1.66666667E-01  0.00000000E+00
                      -1.66666667E-01  1.66666667E-01  0.00000000E+00
                       3.33333333E-01  3.33333333E-01  0.00000000E+00
                       5.00000000E-01  3.33333333E-01  0.00000000E+00
                      -3.33333333E-01  3.33333333E-01  0.00000000E+00
                       5.00000000E-01  5.00000000E-01  0.00000000E+00
                       5.00000000E-01  3.33333333E-01  1.66666667E-01
                      -3.33333333E-01  3.33333333E-01  1.66666667E-01
                      -3.33333333E-01  5.00000000E-01  1.66666667E-01
         kptrlatt        6    0    0      0    6    0      0    0    6
          kptrlen      4.33470599E+01
P           mkmem          16
            natom           2
            nband          15
           ndtset          25
           ndivsm          20
            ngfft11        36      36      36
            ngfft21        36      36      36
            ngfft31        36      36      36
            ngfft41        36      36      36
            ngfft51        36      36      36
            ngfft61        36      36      36
            ngfft71        40      40      40
            ngfft81        40      40      40
            ngfft91        40      40      40
            ngfft101       40      40      40
            ngfft111       40      40      40
            ngfft121       40      40      40
            ngfft131       40      40      40
            ngfft141       45      45      45
            ngfft151       45      45      45
            ngfft161       45      45      45
            ngfft171       45      45      45
            ngfft181       45      45      45
            ngfft191       45      45      45
            ngfft201       45      45      45
            ngfft211       45      45      45
            ngfft221       48      48      48
            ngfft231       48      48      48
            ngfft241       48      48      48
            ngfft251       48      48      48
             nkpt          16
            nstep          20
             nsym          24
           ntypat           2
              occ      2.000000  2.000000  2.000000  2.000000  2.000000  2.000000
                       2.000000  2.000000  2.000000  2.000000  2.000000  2.000000
                       2.000000  2.000000  0.000000
            rprim      0.0000000000E+00  5.0000000000E-01  5.0000000000E-01
                       5.0000000000E-01  0.0000000000E+00  5.0000000000E-01
                       5.0000000000E-01  5.0000000000E-01  0.0000000000E+00
          spgroup         216
           symrel      1  0  0   0  1  0   0  0  1       0 -1  1   0 -1  0   1 -1  0
                      -1  0  0  -1  0  1  -1  1  0       0  1 -1   1  0 -1   0  0 -1
                      -1  0  0  -1  1  0  -1  0  1       0 -1  1   1 -1  0   0 -1  0
                       1  0  0   0  0  1   0  1  0       0  1 -1   0  0 -1   1  0 -1
                      -1  0  1  -1  1  0  -1  0  0       0 -1  0   1 -1  0   0 -1  1
                       1  0 -1   0  0 -1   0  1 -1       0  1  0   0  0  1   1  0  0
                       1  0 -1   0  1 -1   0  0 -1       0 -1  0   0 -1  1   1 -1  0
                      -1  0  1  -1  0  0  -1  1  0       0  1  0   1  0  0   0  0  1
                       0  0 -1   0  1 -1   1  0 -1       1 -1  0   0 -1  1   0 -1  0
                       0  0  1   1  0  0   0  1  0      -1  1  0  -1  0  0  -1  0  1
                       0  0  1   0  1  0   1  0  0       1 -1  0   0 -1  0   0 -1  1
                       0  0 -1   1  0 -1   0  1 -1      -1  1  0  -1  0  1  -1  0  0
           toldfe      1.00000000E-06 Hartree
            typat      1  2
              wtk        0.00463    0.03704    0.03704    0.01852    0.02778    0.11111
                         0.11111    0.11111    0.05556    0.02778    0.11111    0.05556
                         0.01389    0.11111    0.11111    0.05556
           xangst      0.0000000000E+00  0.0000000000E+00  0.0000000000E+00
                       1.3516508850E+00  1.3516508850E+00  1.3516508850E+00
            xcart      0.0000000000E+00  0.0000000000E+00  0.0000000000E+00
                       2.5542500000E+00  2.5542500000E+00  2.5542500000E+00
             xred      0.0000000000E+00  0.0000000000E+00  0.0000000000E+00
                       2.5000000000E-01  2.5000000000E-01  2.5000000000E-01
            znucl       31.00000   33.00000
 
================================================================================
 
 chkinp: Checking input parameters for consistency, jdtset=  11.
 
 chkinp: Checking input parameters for consistency, jdtset=  21.
 
 chkinp: Checking input parameters for consistency, jdtset=  31.
 
 chkinp: Checking input parameters for consistency, jdtset=  41.
 
 chkinp: Checking input parameters for consistency, jdtset=  51.
 
 chkinp: Checking input parameters for consistency, jdtset=  61.
 
 chkinp: Checking input parameters for consistency, jdtset=  71.
 
 chkinp: Checking input parameters for consistency, jdtset=  81.
 
 chkinp: Checking input parameters for consistency, jdtset=  91.
 
 chkinp: Checking input parameters for consistency, jdtset= 101.
 
 chkinp: Checking input parameters for consistency, jdtset= 111.
 
 chkinp: Checking input parameters for consistency, jdtset= 121.
 
 chkinp: Checking input parameters for consistency, jdtset= 131.
 
 chkinp: Checking input parameters for consistency, jdtset= 141.
 
 chkinp: Checking input parameters for consistency, jdtset= 151.
 
 chkinp: Checking input parameters for consistency, jdtset= 161.
 
 chkinp: Checking input parameters for consistency, jdtset= 171.
 
 chkinp: Checking input parameters for consistency, jdtset= 181.
 
 chkinp: Checking input parameters for consistency, jdtset= 191.
 
 chkinp: Checking input parameters for consistency, jdtset= 201.
 
 chkinp: Checking input parameters for consistency, jdtset= 211.
 
 chkinp: Checking input parameters for consistency, jdtset= 221.
 
 chkinp: Checking input parameters for consistency, jdtset= 231.
 
 chkinp: Checking input parameters for consistency, jdtset= 241.
 
 chkinp: Checking input parameters for consistency, jdtset= 251.
 
================================================================================
== DATASET 11 ==================================================================
-   mpi_nproc: 1, omp_nthreads: 1 (-1 if OMP is not activated)
 

--- !DatasetInfo
iteration_state: {dtset: 11, }
dimensions: {natom: 2, nkpt: 16, mband: 15, nsppol: 1, nspinor: 1, nspden: 1, mpw: 1614, }
cutoff_energies: {ecut:  25.0, pawecutdg:  -1.0, }
electrons: {nelect:   2.80000000E+01, charge:   0.00000000E+00, occopt:   1.00000000E+00, tsmear:   1.00000000E-02, }
meta: {optdriver: 0, ionmov: 0, optcell: 0, iscf: 7, paral_kgb: 0, }
...

 Real(R)+Recip(G) space primitive vectors, cartesian coordinates (Bohr,Bohr^-1):
 R(1)=  0.0000000  5.1085000  5.1085000  G(1)= -0.0978761  0.0978761  0.0978761
 R(2)=  5.1085000  0.0000000  5.1085000  G(2)=  0.0978761 -0.0978761  0.0978761
 R(3)=  5.1085000  5.1085000  0.0000000  G(3)=  0.0978761  0.0978761 -0.0978761
 Unit cell volume ucvol=  2.6663072E+02 bohr^3
 Angles (23,13,12)=  6.00000000E+01  6.00000000E+01  6.00000000E+01 degrees
 
 getcut: wavevector=  0.0000  0.0000  0.0000  ngfft=  36  36  36
         ecut(hartree)=     25.000   => boxcut(ratio)=   2.21390
 
 getcut : COMMENT -
  Note that boxcut > 2.2 ; recall that boxcut=Gcut(box)/Gcut(sphere) = 2
  is sufficient for exact treatment of convolution.
  Such a large boxcut is a waste : you could raise ecut
  e.g. ecut=   30.633595 Hartrees makes boxcut=2
 
 
--- Pseudopotential description ------------------------------------------------
- pspini: atom type   1  psp file is Ga.psp8
- pspatm: opening atomic psp file    Ga.psp8
- Ga    ONCVPSP-3.3.0  r_core=   1.66857   1.75011   1.90252
- 31.00000  13.00000    180430                znucl, zion, pspdat
    8 -116133    2    4       600   0.00000   pspcod,pspxc,lmax,lloc,mmax,r2well
    5.99000000000000    5.00000000000000    0.00000000000000   rchrg,fchrg,qchrg
     nproj     2     4     2
     spin-orbit psp, extension_switch     3
        nprojso     4     3
  pspatm : epsatm=   24.51314239
         --- l  ekb(1:nproj) -->
             0    1.158767    7.056324
             1    6.883841    1.296077    0.006208    0.000035
             2   -8.367207   -2.818603
  spin-orbit 1
  spin-orbit 1
  spin-orbit 1
  spin-orbit 1
  spin-orbit 2
  spin-orbit 2
  spin-orbit 2
 pspatm: atomic psp has been read  and splines computed
 
- pspini: atom type   2  psp file is As.psp8
- pspatm: opening atomic psp file    As.psp8
- As    ONCVPSP-3.3.0  r_core=   1.76603   1.70395   1.80867
- 33.00000  15.00000    180430                znucl, zion, pspdat
    8 -116133    2    4       600   0.00000   pspcod,pspxc,lmax,lloc,mmax,r2well
    5.99000000000000    5.00000000000000    0.00000000000000   rchrg,fchrg,qchrg
     nproj     2     4     2
     spin-orbit psp, extension_switch     3
        nprojso     4     3
  pspatm : epsatm=   28.79443881
         --- l  ekb(1:nproj) -->
             0    0.868725    8.270752
             1    4.918619    0.757526    0.005498    0.000037
             2  -10.046656   -4.075565
  spin-orbit 1
  spin-orbit 1
  spin-orbit 1
  spin-orbit 1
  spin-orbit 2
  spin-orbit 2
  spin-orbit 2
 pspatm: atomic psp has been read  and splines computed
 
   1.49261227E+03                                ecore*ucvol(ha*bohr**3)
--------------------------------------------------------------------------------
 
_setup2: Arith. and geom. avg. npw (full set) are    1590.505    1590.464
 
================================================================================

--- !BeginCycle
iteration_state: {dtset: 11, }
solver: {iscf: 7, nstep: 20, nline: 4, wfoptalg: 0, }
tolerances: {toldfe: 1.00E-06, }
...
 
     iter   Etot(hartree)      deltaE(h)  residm     vres2
 ETOT  1  -173.98992272050    -1.740E+02 8.230E-01 7.942E+03
 ETOT  2  -179.11477158419    -5.125E+00 1.515E-01 1.206E+04
 ETOT  3  -181.12088643398    -2.006E+00 2.941E-02 2.038E+03
 ETOT  4  -181.35524994170    -2.344E-01 1.213E-02 8.902E+02
 ETOT  5  -181.46908968228    -1.138E-01 2.161E-03 3.038E+02
 ETOT  6  -181.52569067447    -5.660E-02 1.605E-03 1.617E+01
 ETOT  7  -181.52899213995    -3.301E-03 9.138E-04 3.537E-01
 ETOT  8  -181.52907424102    -8.210E-05 1.372E-04 2.107E-02
 ETOT  9  -181.52907879194    -4.551E-06 8.391E-05 2.690E-04
 ETOT 10  -181.52907885912    -6.718E-08 6.038E-05 2.202E-06
 ETOT 11  -181.52907885981    -6.868E-10 1.278E-05 3.365E-08
 
 At SCF step   11, etot is converged : 
  for the second time, diff in etot=  6.868E-10 < toldfe=  1.000E-06
 
 Cartesian components of stress tensor (hartree/bohr^3)
  sigma(1 1)=  1.63495787E-02  sigma(3 2)=  0.00000000E+00
  sigma(2 2)=  1.63495787E-02  sigma(3 1)=  0.00000000E+00
  sigma(3 3)=  1.63495787E-02  sigma(2 1)=  0.00000000E+00
 

--- !ResultsGS
iteration_state: {dtset: 11, }
comment   : Summary of ground state results
lattice_vectors:
- [  0.0000000,   5.1085000,   5.1085000, ]
- [  5.1085000,   0.0000000,   5.1085000, ]
- [  5.1085000,   5.1085000,   0.0000000, ]
lattice_lengths: [   7.22451,    7.22451,    7.22451, ]
lattice_angles: [ 60.000,  60.000,  60.000, ] # degrees, (23, 13, 12)
lattice_volume:   2.6663072E+02
convergence: {deltae: -6.868E-10, res2:  3.365E-08, residm:  1.278E-05, diffor: null, }
etotal    :  -1.81529079E+02
entropy   :   0.00000000E+00
fermie    :   1.95209067E-01
cartesian_stress_tensor: # hartree/bohr^3
- [  1.63495787E-02,   0.00000000E+00,   0.00000000E+00, ]
- [  0.00000000E+00,   1.63495787E-02,   0.00000000E+00, ]
- [  0.00000000E+00,   0.00000000E+00,   1.63495787E-02, ]
pressure_GPa:  -4.8102E+02
xred      :
- [  0.0000E+00,   0.0000E+00,   0.0000E+00, Ga]
- [  2.5000E-01,   2.5000E-01,   2.5000E-01, As]
cartesian_forces: # hartree/bohr
- [ -4.21672933E-28,  -4.21672933E-28,   1.26501880E-27, ]
- [  4.21672933E-28,   4.21672933E-28,  -1.26501880E-27, ]
force_length_stats: {min:   1.39853090E-27, max:   1.39853090E-27, mean:   1.39853090E-27, }
...

 Integrated electronic density in atomic spheres:
 ------------------------------------------------
 Atom  Sphere_radius  Integrated_density
    1        2.00000         10.92736879
    2        2.00000         12.50412309
================================================================================
 
 ----iterations are completed or convergence reached----
 
 Mean square residual over all n,k,spin=   91.734E-09; max=  12.780E-06
 reduced coordinates (array xred) for    2 atoms
       0.000000000000      0.000000000000      0.000000000000
       0.250000000000      0.250000000000      0.250000000000
 rms dE/dt=  6.0928E-27; max dE/dt=  8.6165E-27; dE/dt below (all hartree)
    1      -0.000000000000     -0.000000000000      0.000000000000
    2       0.000000000000      0.000000000000      0.000000000000
 
 cartesian coordinates (angstrom) at end:
    1      0.00000000000000     0.00000000000000     0.00000000000000
    2      1.35165088504101     1.35165088504101     1.35165088504101
 
 cartesian forces (hartree/bohr) at end:
    1     -0.00000000000000    -0.00000000000000     0.00000000000000
    2      0.00000000000000     0.00000000000000    -0.00000000000000
 frms,max,avg= 8.0744219E-28 1.2650188E-27   0.000E+00  0.000E+00  0.000E+00 h/b
 
 cartesian forces (eV/Angstrom) at end:
    1     -0.00000000000000    -0.00000000000000     0.00000000000000
    2      0.00000000000000     0.00000000000000    -0.00000000000000
 frms,max,avg= 4.1520343E-26 6.5049877E-26   0.000E+00  0.000E+00  0.000E+00 e/A
 length scales= 10.217000000000 10.217000000000 10.217000000000 bohr
              =  5.406603540164  5.406603540164  5.406603540164 angstroms
 prteigrs : about to open file ecuto_DS11_EIG
 Fermi (or HOMO) energy (eV) =   5.31191   Average Vxc (eV)= -10.85948
 Eigenvalues (   eV  ) for nkpt=  16  k points:
 kpt#   1, nband= 15, wtk=  0.00463, kpt=  0.0000  0.0000  0.0000 (reduced coord)
 -31.28314  -31.28314  -31.16730  -31.16730  -31.16730  -10.30142  -10.30142  -10.30142
 -10.24257  -10.24257   -8.53930    5.31191    5.31191    5.31191    6.65762
 prteigrs : prtvol=0 or 1, do not print more k-points.
 

--- !EnergyTerms
iteration_state     : {dtset: 11, }
comment             : Components of total free energy in Hartree
kinetic             :  1.35754275797068E+02
hartree             :  5.34044589149077E+01
xc                  : -4.39401438609903E+01
Ewald energy        : -1.03709047935390E+02
psp_core            :  5.59805059945077E+00
local_psp           : -1.41437759267740E+02
non_local_psp       : -8.71989131071134E+01
total_energy        : -1.81529078859808E+02
total_energy_eV     : -4.93965744660645E+03
band_energy         : -1.52889598277713E+01
...

 
 Cartesian components of stress tensor (hartree/bohr^3)
  sigma(1 1)=  1.63495787E-02  sigma(3 2)=  0.00000000E+00
  sigma(2 2)=  1.63495787E-02  sigma(3 1)=  0.00000000E+00
  sigma(3 3)=  1.63495787E-02  sigma(2 1)=  0.00000000E+00
 
-Cartesian components of stress tensor (GPa)         [Pressure= -4.8102E+02 GPa]
- sigma(1 1)=  4.81021131E+02  sigma(3 2)=  0.00000000E+00
- sigma(2 2)=  4.81021131E+02  sigma(3 1)=  0.00000000E+00
- sigma(3 3)=  4.81021131E+02  sigma(2 1)=  0.00000000E+00
 
================================================================================
== DATASET 21 ==================================================================
-   mpi_nproc: 1, omp_nthreads: 1 (-1 if OMP is not activated)
 

--- !DatasetInfo
iteration_state: {dtset: 21, }
dimensions: {natom: 2, nkpt: 16, mband: 15, nsppol: 1, nspinor: 1, nspden: 1, mpw: 1711, }
cutoff_energies: {ecut:  26.0, pawecutdg:  -1.0, }
electrons: {nelect:   2.80000000E+01, charge:   0.00000000E+00, occopt:   1.00000000E+00, tsmear:   1.00000000E-02, }
meta: {optdriver: 0, ionmov: 0, optcell: 0, iscf: 7, paral_kgb: 0, }
...

 Real(R)+Recip(G) space primitive vectors, cartesian coordinates (Bohr,Bohr^-1):
 R(1)=  0.0000000  5.1085000  5.1085000  G(1)= -0.0978761  0.0978761  0.0978761
 R(2)=  5.1085000  0.0000000  5.1085000  G(2)=  0.0978761 -0.0978761  0.0978761
 R(3)=  5.1085000  5.1085000  0.0000000  G(3)=  0.0978761  0.0978761 -0.0978761
 Unit cell volume ucvol=  2.6663072E+02 bohr^3
 Angles (23,13,12)=  6.00000000E+01  6.00000000E+01  6.00000000E+01 degrees
 
 getcut: wavevector=  0.0000  0.0000  0.0000  ngfft=  36  36  36
         ecut(hartree)=     26.000   => boxcut(ratio)=   2.17091
 
--- Pseudopotential description ------------------------------------------------
- pspini: atom type   1  psp file is Ga.psp8
- pspatm: opening atomic psp file    Ga.psp8
- Ga    ONCVPSP-3.3.0  r_core=   1.66857   1.75011   1.90252
- 31.00000  13.00000    180430                znucl, zion, pspdat
    8 -116133    2    4       600   0.00000   pspcod,pspxc,lmax,lloc,mmax,r2well
    5.99000000000000    5.00000000000000    0.00000000000000   rchrg,fchrg,qchrg
     nproj     2     4     2
     spin-orbit psp, extension_switch     3
        nprojso     4     3
  pspatm : epsatm=   24.51314239
         --- l  ekb(1:nproj) -->
             0    1.158767    7.056324
             1    6.883841    1.296077    0.006208    0.000035
             2   -8.367207   -2.818603
  spin-orbit 1
  spin-orbit 1
  spin-orbit 1
  spin-orbit 1
  spin-orbit 2
  spin-orbit 2
  spin-orbit 2
 pspatm: atomic psp has been read  and splines computed
 
- pspini: atom type   2  psp file is As.psp8
- pspatm: opening atomic psp file    As.psp8
- As    ONCVPSP-3.3.0  r_core=   1.76603   1.70395   1.80867
- 33.00000  15.00000    180430                znucl, zion, pspdat
    8 -116133    2    4       600   0.00000   pspcod,pspxc,lmax,lloc,mmax,r2well
    5.99000000000000    5.00000000000000    0.00000000000000   rchrg,fchrg,qchrg
     nproj     2     4     2
     spin-orbit psp, extension_switch     3
        nprojso     4     3
  pspatm : epsatm=   28.79443881
         --- l  ekb(1:nproj) -->
             0    0.868725    8.270752
             1    4.918619    0.757526    0.005498    0.000037
             2  -10.046656   -4.075565
  spin-orbit 1
  spin-orbit 1
  spin-orbit 1
  spin-orbit 1
  spin-orbit 2
  spin-orbit 2
  spin-orbit 2
 pspatm: atomic psp has been read  and splines computed
 
--------------------------------------------------------------------------------
 
_setup2: Arith. and geom. avg. npw (full set) are    1688.014    1687.996
 
================================================================================

--- !BeginCycle
iteration_state: {dtset: 21, }
solver: {iscf: 7, nstep: 20, nline: 4, wfoptalg: 0, }
tolerances: {toldfe: 1.00E-06, }
...
 
     iter   Etot(hartree)      deltaE(h)  residm     vres2
 ETOT  1  -174.50022000514    -1.745E+02 1.029E+00 7.092E+03
 ETOT  2  -179.54455988975    -5.044E+00 1.119E-01 1.094E+04
 ETOT  3  -181.37776346712    -1.833E+00 2.495E-02 1.875E+03
 ETOT  4  -181.59094367358    -2.132E-01 1.197E-02 8.535E+02
 ETOT  5  -181.69717710174    -1.062E-01 6.099E-03 3.178E+02
 ETOT  6  -181.75741578045    -6.024E-02 1.983E-03 1.875E+01
 ETOT  7  -181.76137049766    -3.955E-03 2.186E-03 2.913E-01
 ETOT  8  -181.76144082345    -7.033E-05 3.016E-04 3.292E-02
 ETOT  9  -181.76144779308    -6.970E-06 4.104E-04 1.980E-03
 ETOT 10  -181.76144822733    -4.343E-07 1.019E-04 4.856E-06
 ETOT 11  -181.76144822888    -1.552E-09 1.322E-04 4.352E-07
 
 At SCF step   11, etot is converged : 
  for the second time, diff in etot=  1.552E-09 < toldfe=  1.000E-06
 
 Cartesian components of stress tensor (hartree/bohr^3)
  sigma(1 1)=  1.22345266E-02  sigma(3 2)=  0.00000000E+00
  sigma(2 2)=  1.22345266E-02  sigma(3 1)=  0.00000000E+00
  sigma(3 3)=  1.22345266E-02  sigma(2 1)=  0.00000000E+00
 

--- !ResultsGS
iteration_state: {dtset: 21, }
comment   : Summary of ground state results
lattice_vectors:
- [  0.0000000,   5.1085000,   5.1085000, ]
- [  5.1085000,   0.0000000,   5.1085000, ]
- [  5.1085000,   5.1085000,   0.0000000, ]
lattice_lengths: [   7.22451,    7.22451,    7.22451, ]
lattice_angles: [ 60.000,  60.000,  60.000, ] # degrees, (23, 13, 12)
lattice_volume:   2.6663072E+02
convergence: {deltae: -1.552E-09, res2:  4.352E-07, residm:  1.322E-04, diffor: null, }
etotal    :  -1.81761448E+02
entropy   :   0.00000000E+00
fermie    :   1.94982026E-01
cartesian_stress_tensor: # hartree/bohr^3
- [  1.22345266E-02,   0.00000000E+00,   0.00000000E+00, ]
- [  0.00000000E+00,   1.22345266E-02,   0.00000000E+00, ]
- [  0.00000000E+00,   0.00000000E+00,   1.22345266E-02, ]
pressure_GPa:  -3.5995E+02
xred      :
- [  0.0000E+00,   0.0000E+00,   0.0000E+00, Ga]
- [  2.5000E-01,   2.5000E-01,   2.5000E-01, As]
cartesian_forces: # hartree/bohr
- [  8.43345866E-28,   8.43345866E-28,  -2.53003760E-27, ]
- [ -8.43345866E-28,  -8.43345866E-28,   2.53003760E-27, ]
force_length_stats: {min:   2.79706181E-27, max:   2.79706181E-27, mean:   2.79706181E-27, }
...

 Integrated electronic density in atomic spheres:
 ------------------------------------------------
 Atom  Sphere_radius  Integrated_density
    1        2.00000         10.92714385
    2        2.00000         12.49932838
================================================================================
 
 ----iterations are completed or convergence reached----
 
 Mean square residual over all n,k,spin=   88.184E-08; max=  13.222E-05
 reduced coordinates (array xred) for    2 atoms
       0.000000000000      0.000000000000      0.000000000000
       0.250000000000      0.250000000000      0.250000000000
 rms dE/dt=  1.2186E-26; max dE/dt=  1.7233E-26; dE/dt below (all hartree)
    1       0.000000000000      0.000000000000     -0.000000000000
    2       0.000000000000      0.000000000000      0.000000000000
 
 cartesian coordinates (angstrom) at end:
    1      0.00000000000000     0.00000000000000     0.00000000000000
    2      1.35165088504101     1.35165088504101     1.35165088504101
 
 cartesian forces (hartree/bohr) at end:
    1      0.00000000000000     0.00000000000000    -0.00000000000000
    2     -0.00000000000000    -0.00000000000000     0.00000000000000
 frms,max,avg= 1.6148844E-27 2.5300376E-27   0.000E+00  0.000E+00  0.000E+00 h/b
 
 cartesian forces (eV/Angstrom) at end:
    1      0.00000000000000     0.00000000000000    -0.00000000000000
    2     -0.00000000000000    -0.00000000000000     0.00000000000000
 frms,max,avg= 8.3040687E-26 1.3009975E-25   0.000E+00  0.000E+00  0.000E+00 e/A
 length scales= 10.217000000000 10.217000000000 10.217000000000 bohr
              =  5.406603540164  5.406603540164  5.406603540164 angstroms
 prteigrs : about to open file ecuto_DS21_EIG
 Fermi (or HOMO) energy (eV) =   5.30573   Average Vxc (eV)= -10.85792
 Eigenvalues (   eV  ) for nkpt=  16  k points:
 kpt#   1, nband= 15, wtk=  0.00463, kpt=  0.0000  0.0000  0.0000 (reduced coord)
 -30.82997  -30.82997  -30.82997  -30.81240  -30.81240  -10.09545  -10.09545  -10.09545
  -9.98360   -9.98360   -8.53307    5.30573    5.30573    5.30573    6.69352
 prteigrs : prtvol=0 or 1, do not print more k-points.
 

--- !EnergyTerms
iteration_state     : {dtset: 21, }
comment             : Components of total free energy in Hartree
kinetic             :  1.36623422010191E+02
hartree             :  5.37224360388131E+01
xc                  : -4.40389333788485E+01
Ewald energy        : -1.03709047935390E+02
psp_core            :  5.59805059945077E+00
local_psp           : -1.41905489128143E+02
non_local_psp       : -8.80518864349531E+01
total_energy        : -1.81761448228880E+02
total_energy_eV     : -4.94598053870558E+03
band_energy         : -1.51910549112310E+01
...

 
 Cartesian components of stress tensor (hartree/bohr^3)
  sigma(1 1)=  1.22345266E-02  sigma(3 2)=  0.00000000E+00
  sigma(2 2)=  1.22345266E-02  sigma(3 1)=  0.00000000E+00
  sigma(3 3)=  1.22345266E-02  sigma(2 1)=  0.00000000E+00
 
-Cartesian components of stress tensor (GPa)         [Pressure= -3.5995E+02 GPa]
- sigma(1 1)=  3.59952140E+02  sigma(3 2)=  0.00000000E+00
- sigma(2 2)=  3.59952140E+02  sigma(3 1)=  0.00000000E+00
- sigma(3 3)=  3.59952140E+02  sigma(2 1)=  0.00000000E+00
 
================================================================================
== DATASET 31 ==================================================================
-   mpi_nproc: 1, omp_nthreads: 1 (-1 if OMP is not activated)
 

--- !DatasetInfo
iteration_state: {dtset: 31, }
dimensions: {natom: 2, nkpt: 16, mband: 15, nsppol: 1, nspinor: 1, nspden: 1, mpw: 1820, }
cutoff_energies: {ecut:  27.0, pawecutdg:  -1.0, }
electrons: {nelect:   2.80000000E+01, charge:   0.00000000E+00, occopt:   1.00000000E+00, tsmear:   1.00000000E-02, }
meta: {optdriver: 0, ionmov: 0, optcell: 0, iscf: 7, paral_kgb: 0, }
...

 Real(R)+Recip(G) space primitive vectors, cartesian coordinates (Bohr,Bohr^-1):
 R(1)=  0.0000000  5.1085000  5.1085000  G(1)= -0.0978761  0.0978761  0.0978761
 R(2)=  5.1085000  0.0000000  5.1085000  G(2)=  0.0978761 -0.0978761  0.0978761
 R(3)=  5.1085000  5.1085000  0.0000000  G(3)=  0.0978761  0.0978761 -0.0978761
 Unit cell volume ucvol=  2.6663072E+02 bohr^3
 Angles (23,13,12)=  6.00000000E+01  6.00000000E+01  6.00000000E+01 degrees
 
 getcut: wavevector=  0.0000  0.0000  0.0000  ngfft=  36  36  36
         ecut(hartree)=     27.000   => boxcut(ratio)=   2.13033
 
--- Pseudopotential description ------------------------------------------------
- pspini: atom type   1  psp file is Ga.psp8
- pspatm: opening atomic psp file    Ga.psp8
- Ga    ONCVPSP-3.3.0  r_core=   1.66857   1.75011   1.90252
- 31.00000  13.00000    180430                znucl, zion, pspdat
    8 -116133    2    4       600   0.00000   pspcod,pspxc,lmax,lloc,mmax,r2well
    5.99000000000000    5.00000000000000    0.00000000000000   rchrg,fchrg,qchrg
     nproj     2     4     2
     spin-orbit psp, extension_switch     3
        nprojso     4     3
  pspatm : epsatm=   24.51314239
         --- l  ekb(1:nproj) -->
             0    1.158767    7.056324
             1    6.883841    1.296077    0.006208    0.000035
             2   -8.367207   -2.818603
  spin-orbit 1
  spin-orbit 1
  spin-orbit 1
  spin-orbit 1
  spin-orbit 2
  spin-orbit 2
  spin-orbit 2
 pspatm: atomic psp has been read  and splines computed
 
- pspini: atom type   2  psp file is As.psp8
- pspatm: opening atomic psp file    As.psp8
- As    ONCVPSP-3.3.0  r_core=   1.76603   1.70395   1.80867
- 33.00000  15.00000    180430                znucl, zion, pspdat
    8 -116133    2    4       600   0.00000   pspcod,pspxc,lmax,lloc,mmax,r2well
    5.99000000000000    5.00000000000000    0.00000000000000   rchrg,fchrg,qchrg
     nproj     2     4     2
     spin-orbit psp, extension_switch     3
        nprojso     4     3
  pspatm : epsatm=   28.79443881
         --- l  ekb(1:nproj) -->
             0    0.868725    8.270752
             1    4.918619    0.757526    0.005498    0.000037
             2  -10.046656   -4.075565
  spin-orbit 1
  spin-orbit 1
  spin-orbit 1
  spin-orbit 1
  spin-orbit 2
  spin-orbit 2
  spin-orbit 2
 pspatm: atomic psp has been read  and splines computed
 
--------------------------------------------------------------------------------
 
_setup2: Arith. and geom. avg. npw (full set) are    1787.440    1787.407
 
================================================================================

--- !BeginCycle
iteration_state: {dtset: 31, }
solver: {iscf: 7, nstep: 20, nline: 4, wfoptalg: 0, }
tolerances: {toldfe: 1.00E-06, }
...
 
     iter   Etot(hartree)      deltaE(h)  residm     vres2
 ETOT  1  -174.38053482462    -1.744E+02 8.933E-01 7.605E+03
 ETOT  2  -179.47616319225    -5.096E+00 3.157E-01 1.202E+04
 ETOT  3  -181.50758865825    -2.031E+00 2.623E-02 2.060E+03
 ETOT  4  -181.73425822848    -2.267E-01 9.542E-03 9.726E+02
 ETOT  5  -181.84359224081    -1.093E-01 4.102E-03 4.194E+02
 ETOT  6  -181.92188793443    -7.830E-02 1.566E-03 3.040E+01
 ETOT  7  -181.92813374042    -6.246E-03 2.476E-03 6.266E-01
 ETOT  8  -181.92828625329    -1.525E-04 1.658E-04 1.549E-02
 ETOT  9  -181.92829001599    -3.763E-06 3.390E-04 1.604E-04
 ETOT 10  -181.92829004685    -3.086E-08 2.333E-05 2.693E-05
 ETOT 11  -181.92829005392    -7.069E-09 5.934E-05 1.021E-06
 
 At SCF step   11, etot is converged : 
  for the second time, diff in etot=  7.069E-09 < toldfe=  1.000E-06
 
 Cartesian components of stress tensor (hartree/bohr^3)
  sigma(1 1)=  8.89474223E-03  sigma(3 2)=  0.00000000E+00
  sigma(2 2)=  8.89474223E-03  sigma(3 1)=  0.00000000E+00
  sigma(3 3)=  8.89474223E-03  sigma(2 1)=  0.00000000E+00
 

--- !ResultsGS
iteration_state: {dtset: 31, }
comment   : Summary of ground state results
lattice_vectors:
- [  0.0000000,   5.1085000,   5.1085000, ]
- [  5.1085000,   0.0000000,   5.1085000, ]
- [  5.1085000,   5.1085000,   0.0000000, ]
lattice_lengths: [   7.22451,    7.22451,    7.22451, ]
lattice_angles: [ 60.000,  60.000,  60.000, ] # degrees, (23, 13, 12)
lattice_volume:   2.6663072E+02
convergence: {deltae: -7.069E-09, res2:  1.021E-06, residm:  5.934E-05, diffor: null, }
etotal    :  -1.81928290E+02
entropy   :   0.00000000E+00
fermie    :   1.94756813E-01
cartesian_stress_tensor: # hartree/bohr^3
- [  8.89474223E-03,   0.00000000E+00,   0.00000000E+00, ]
- [  0.00000000E+00,   8.89474223E-03,   0.00000000E+00, ]
- [  0.00000000E+00,   0.00000000E+00,   8.89474223E-03, ]
pressure_GPa:  -2.6169E+02
xred      :
- [  0.0000E+00,   0.0000E+00,   0.0000E+00, Ga]
- [  2.5000E-01,   2.5000E-01,   2.5000E-01, As]
cartesian_forces: # hartree/bohr
- [ -8.43345866E-28,  -8.43345866E-28,   2.53003760E-27, ]
- [  8.43345866E-28,   8.43345866E-28,  -2.53003760E-27, ]
force_length_stats: {min:   2.79706181E-27, max:   2.79706181E-27, mean:   2.79706181E-27, }
...

 Integrated electronic density in atomic spheres:
 ------------------------------------------------
 Atom  Sphere_radius  Integrated_density
    1        2.00000         10.92623139
    2        2.00000         12.49503785
================================================================================
 
 ----iterations are completed or convergence reached----
 
 Mean square residual over all n,k,spin=   34.458E-08; max=  59.340E-06
 reduced coordinates (array xred) for    2 atoms
       0.000000000000      0.000000000000      0.000000000000
       0.250000000000      0.250000000000      0.250000000000
 rms dE/dt=  1.2186E-26; max dE/dt=  1.7233E-26; dE/dt below (all hartree)
    1      -0.000000000000     -0.000000000000      0.000000000000
    2       0.000000000000      0.000000000000      0.000000000000
 
 cartesian coordinates (angstrom) at end:
    1      0.00000000000000     0.00000000000000     0.00000000000000
    2      1.35165088504101     1.35165088504101     1.35165088504101
 
 cartesian forces (hartree/bohr) at end:
    1     -0.00000000000000    -0.00000000000000     0.00000000000000
    2      0.00000000000000     0.00000000000000    -0.00000000000000
 frms,max,avg= 1.6148844E-27 2.5300376E-27   0.000E+00  0.000E+00  0.000E+00 h/b
 
 cartesian forces (eV/Angstrom) at end:
    1     -0.00000000000000    -0.00000000000000     0.00000000000000
    2      0.00000000000000     0.00000000000000    -0.00000000000000
 frms,max,avg= 8.3040687E-26 1.3009975E-25   0.000E+00  0.000E+00  0.000E+00 e/A
 length scales= 10.217000000000 10.217000000000 10.217000000000 bohr
              =  5.406603540164  5.406603540164  5.406603540164 angstroms
 prteigrs : about to open file ecuto_DS31_EIG
 Fermi (or HOMO) energy (eV) =   5.29960   Average Vxc (eV)= -10.85673
 Eigenvalues (   eV  ) for nkpt=  16  k points:
 kpt#   1, nband= 15, wtk=  0.00463, kpt=  0.0000  0.0000  0.0000 (reduced coord)
 -30.79636  -30.79636  -30.79636  -30.70254  -30.70254  -10.06712  -10.06712  -10.06712
  -9.90981   -9.90981   -8.52897    5.29960    5.29960    5.29960    6.71916
 prteigrs : prtvol=0 or 1, do not print more k-points.
 

--- !EnergyTerms
iteration_state     : {dtset: 31, }
comment             : Components of total free energy in Hartree
kinetic             :  1.37283289952149E+02
hartree             :  5.39664071720225E+01
xc                  : -4.41143890923409E+01
Ewald energy        : -1.03709047935390E+02
psp_core            :  5.59805059945077E+00
local_psp           : -1.42261971795981E+02
non_local_psp       : -8.86906289538292E+01
total_energy        : -1.81928290053920E+02
total_energy_eV     : -4.95052053565063E+03
band_energy         : -1.51035722142148E+01
...

 
 Cartesian components of stress tensor (hartree/bohr^3)
  sigma(1 1)=  8.89474223E-03  sigma(3 2)=  0.00000000E+00
  sigma(2 2)=  8.89474223E-03  sigma(3 1)=  0.00000000E+00
  sigma(3 3)=  8.89474223E-03  sigma(2 1)=  0.00000000E+00
 
-Cartesian components of stress tensor (GPa)         [Pressure= -2.6169E+02 GPa]
- sigma(1 1)=  2.61692307E+02  sigma(3 2)=  0.00000000E+00
- sigma(2 2)=  2.61692307E+02  sigma(3 1)=  0.00000000E+00
- sigma(3 3)=  2.61692307E+02  sigma(2 1)=  0.00000000E+00
 
================================================================================
== DATASET 41 ==================================================================
-   mpi_nproc: 1, omp_nthreads: 1 (-1 if OMP is not activated)
 

--- !DatasetInfo
iteration_state: {dtset: 41, }
dimensions: {natom: 2, nkpt: 16, mband: 15, nsppol: 1, nspinor: 1, nspden: 1, mpw: 1898, }
cutoff_energies: {ecut:  28.0, pawecutdg:  -1.0, }
electrons: {nelect:   2.80000000E+01, charge:   0.00000000E+00, occopt:   1.00000000E+00, tsmear:   1.00000000E-02, }
meta: {optdriver: 0, ionmov: 0, optcell: 0, iscf: 7, paral_kgb: 0, }
...

 Real(R)+Recip(G) space primitive vectors, cartesian coordinates (Bohr,Bohr^-1):
 R(1)=  0.0000000  5.1085000  5.1085000  G(1)= -0.0978761  0.0978761  0.0978761
 R(2)=  5.1085000  0.0000000  5.1085000  G(2)=  0.0978761 -0.0978761  0.0978761
 R(3)=  5.1085000  5.1085000  0.0000000  G(3)=  0.0978761  0.0978761 -0.0978761
 Unit cell volume ucvol=  2.6663072E+02 bohr^3
 Angles (23,13,12)=  6.00000000E+01  6.00000000E+01  6.00000000E+01 degrees
 
 getcut: wavevector=  0.0000  0.0000  0.0000  ngfft=  36  36  36
         ecut(hartree)=     28.000   => boxcut(ratio)=   2.09194
 
--- Pseudopotential description ------------------------------------------------
- pspini: atom type   1  psp file is Ga.psp8
- pspatm: opening atomic psp file    Ga.psp8
- Ga    ONCVPSP-3.3.0  r_core=   1.66857   1.75011   1.90252
- 31.00000  13.00000    180430                znucl, zion, pspdat
    8 -116133    2    4       600   0.00000   pspcod,pspxc,lmax,lloc,mmax,r2well
    5.99000000000000    5.00000000000000    0.00000000000000   rchrg,fchrg,qchrg
     nproj     2     4     2
     spin-orbit psp, extension_switch     3
        nprojso     4     3
  pspatm : epsatm=   24.51314239
         --- l  ekb(1:nproj) -->
             0    1.158767    7.056324
             1    6.883841    1.296077    0.006208    0.000035
             2   -8.367207   -2.818603
  spin-orbit 1
  spin-orbit 1
  spin-orbit 1
  spin-orbit 1
  spin-orbit 2
  spin-orbit 2
  spin-orbit 2
 pspatm: atomic psp has been read  and splines computed
 
- pspini: atom type   2  psp file is As.psp8
- pspatm: opening atomic psp file    As.psp8
- As    ONCVPSP-3.3.0  r_core=   1.76603   1.70395   1.80867
- 33.00000  15.00000    180430                znucl, zion, pspdat
    8 -116133    2    4       600   0.00000   pspcod,pspxc,lmax,lloc,mmax,r2well
    5.99000000000000    5.00000000000000    0.00000000000000   rchrg,fchrg,qchrg
     nproj     2     4     2
     spin-orbit psp, extension_switch     3
        nprojso     4     3
  pspatm : epsatm=   28.79443881
         --- l  ekb(1:nproj) -->
             0    0.868725    8.270752
             1    4.918619    0.757526    0.005498    0.000037
             2  -10.046656   -4.075565
  spin-orbit 1
  spin-orbit 1
  spin-orbit 1
  spin-orbit 1
  spin-orbit 2
  spin-orbit 2
  spin-orbit 2
 pspatm: atomic psp has been read  and splines computed
 
--------------------------------------------------------------------------------
 
_setup2: Arith. and geom. avg. npw (full set) are    1885.838    1885.816
 
================================================================================

--- !BeginCycle
iteration_state: {dtset: 41, }
solver: {iscf: 7, nstep: 20, nline: 4, wfoptalg: 0, }
tolerances: {toldfe: 1.00E-06, }
...
 
     iter   Etot(hartree)      deltaE(h)  residm     vres2
 ETOT  1  -174.54265944109    -1.745E+02 9.824E-01 7.491E+03
 ETOT  2  -179.58317645000    -5.041E+00 4.369E-01 1.195E+04
 ETOT  3  -181.60980422787    -2.027E+00 3.966E-02 2.090E+03
 ETOT  4  -181.84017685247    -2.304E-01 7.166E-03 9.978E+02
 ETOT  5  -181.95492188548    -1.147E-01 6.320E-03 4.261E+02
 ETOT  6  -182.03224827104    -7.733E-02 1.670E-03 4.739E+01
 ETOT  7  -182.04206002190    -9.812E-03 2.461E-03 1.194E+00
 ETOT  8  -182.04229888586    -2.389E-04 2.412E-04 2.674E-01
 ETOT  9  -182.04235679136    -5.791E-05 4.550E-04 1.324E-02
 ETOT 10  -182.04235965569    -2.864E-06 5.540E-05 1.941E-05
 ETOT 11  -182.04235966385    -8.164E-09 9.930E-05 4.898E-06
 ETOT 12  -182.04235966502    -1.172E-09 1.315E-05 2.793E-07
 
 At SCF step   12, etot is converged : 
  for the second time, diff in etot=  1.172E-09 < toldfe=  1.000E-06
 
 Cartesian components of stress tensor (hartree/bohr^3)
  sigma(1 1)=  6.33307707E-03  sigma(3 2)=  0.00000000E+00
  sigma(2 2)=  6.33307707E-03  sigma(3 1)=  0.00000000E+00
  sigma(3 3)=  6.33307707E-03  sigma(2 1)=  0.00000000E+00
 

--- !ResultsGS
iteration_state: {dtset: 41, }
comment   : Summary of ground state results
lattice_vectors:
- [  0.0000000,   5.1085000,   5.1085000, ]
- [  5.1085000,   0.0000000,   5.1085000, ]
- [  5.1085000,   5.1085000,   0.0000000, ]
lattice_lengths: [   7.22451,    7.22451,    7.22451, ]
lattice_angles: [ 60.000,  60.000,  60.000, ] # degrees, (23, 13, 12)
lattice_volume:   2.6663072E+02
convergence: {deltae: -1.172E-09, res2:  2.793E-07, residm:  1.315E-05, diffor: null, }
etotal    :  -1.82042360E+02
entropy   :   0.00000000E+00
fermie    :   1.94549485E-01
cartesian_stress_tensor: # hartree/bohr^3
- [  6.33307707E-03,   0.00000000E+00,   0.00000000E+00, ]
- [  0.00000000E+00,   6.33307707E-03,   0.00000000E+00, ]
- [  0.00000000E+00,   0.00000000E+00,   6.33307707E-03, ]
pressure_GPa:  -1.8633E+02
xred      :
- [  0.0000E+00,   0.0000E+00,   0.0000E+00, Ga]
- [  2.5000E-01,   2.5000E-01,   2.5000E-01, As]
cartesian_forces: # hartree/bohr
- [  5.27091166E-29,   5.27091166E-29,  -1.58127350E-28, ]
- [ -5.27091166E-29,  -5.27091166E-29,   1.58127350E-28, ]
force_length_stats: {min:   1.74816363E-28, max:   1.74816363E-28, mean:   1.74816363E-28, }
...

 Integrated electronic density in atomic spheres:
 ------------------------------------------------
 Atom  Sphere_radius  Integrated_density
    1        2.00000         10.92502444
    2        2.00000         12.49147139
================================================================================
 
 ----iterations are completed or convergence reached----
 
 Mean square residual over all n,k,spin=   88.951E-09; max=  13.147E-06
 reduced coordinates (array xred) for    2 atoms
       0.000000000000      0.000000000000      0.000000000000
       0.250000000000      0.250000000000      0.250000000000
 rms dE/dt=  7.6160E-28; max dE/dt=  1.0771E-27; dE/dt below (all hartree)
    1       0.000000000000      0.000000000000      0.000000000000
    2      -0.000000000000     -0.000000000000      0.000000000000
 
 cartesian coordinates (angstrom) at end:
    1      0.00000000000000     0.00000000000000     0.00000000000000
    2      1.35165088504101     1.35165088504101     1.35165088504101
 
 cartesian forces (hartree/bohr) at end:
    1      0.00000000000000     0.00000000000000    -0.00000000000000
    2     -0.00000000000000    -0.00000000000000     0.00000000000000
 frms,max,avg= 1.0093027E-28 1.5812735E-28   0.000E+00  0.000E+00  0.000E+00 h/b
 
 cartesian forces (eV/Angstrom) at end:
    1      0.00000000000000     0.00000000000000    -0.00000000000000
    2     -0.00000000000000    -0.00000000000000     0.00000000000000
 frms,max,avg= 5.1900429E-27 8.1312346E-27   0.000E+00  0.000E+00  0.000E+00 e/A
 length scales= 10.217000000000 10.217000000000 10.217000000000 bohr
              =  5.406603540164  5.406603540164  5.406603540164 angstroms
 prteigrs : about to open file ecuto_DS41_EIG
 Fermi (or HOMO) energy (eV) =   5.29396   Average Vxc (eV)= -10.85594
 Eigenvalues (   eV  ) for nkpt=  16  k points:
 kpt#   1, nband= 15, wtk=  0.00463, kpt=  0.0000  0.0000  0.0000 (reduced coord)
 -30.64112  -30.64112  -30.63647  -30.63647  -30.63647   -9.98831   -9.98831   -9.98831
  -9.87285   -9.87285   -8.52656    5.29396    5.29396    5.29396    6.73639
 prteigrs : prtvol=0 or 1, do not print more k-points.
 

--- !EnergyTerms
iteration_state     : {dtset: 41, }
comment             : Components of total free energy in Hartree
kinetic             :  1.37758280424427E+02
hartree             :  5.41437355876978E+01
xc                  : -4.41690936021426E+01
Ewald energy        : -1.03709047935390E+02
psp_core            :  5.59805059945077E+00
local_psp           : -1.42520178530701E+02
non_local_psp       : -8.91441062083657E+01
total_energy        : -1.82042359665024E+02
total_energy_eV     : -4.95362452762516E+03
band_energy         : -1.50321503652532E+01
...

 
 Cartesian components of stress tensor (hartree/bohr^3)
  sigma(1 1)=  6.33307707E-03  sigma(3 2)=  0.00000000E+00
  sigma(2 2)=  6.33307707E-03  sigma(3 1)=  0.00000000E+00
  sigma(3 3)=  6.33307707E-03  sigma(2 1)=  0.00000000E+00
 
-Cartesian components of stress tensor (GPa)         [Pressure= -1.8633E+02 GPa]
- sigma(1 1)=  1.86325529E+02  sigma(3 2)=  0.00000000E+00
- sigma(2 2)=  1.86325529E+02  sigma(3 1)=  0.00000000E+00
- sigma(3 3)=  1.86325529E+02  sigma(2 1)=  0.00000000E+00
 
================================================================================
== DATASET 51 ==================================================================
-   mpi_nproc: 1, omp_nthreads: 1 (-1 if OMP is not activated)
 

--- !DatasetInfo
iteration_state: {dtset: 51, }
dimensions: {natom: 2, nkpt: 16, mband: 15, nsppol: 1, nspinor: 1, nspden: 1, mpw: 2006, }
cutoff_energies: {ecut:  29.0, pawecutdg:  -1.0, }
electrons: {nelect:   2.80000000E+01, charge:   0.00000000E+00, occopt:   1.00000000E+00, tsmear:   1.00000000E-02, }
meta: {optdriver: 0, ionmov: 0, optcell: 0, iscf: 7, paral_kgb: 0, }
...

 Real(R)+Recip(G) space primitive vectors, cartesian coordinates (Bohr,Bohr^-1):
 R(1)=  0.0000000  5.1085000  5.1085000  G(1)= -0.0978761  0.0978761  0.0978761
 R(2)=  5.1085000  0.0000000  5.1085000  G(2)=  0.0978761 -0.0978761  0.0978761
 R(3)=  5.1085000  5.1085000  0.0000000  G(3)=  0.0978761  0.0978761 -0.0978761
 Unit cell volume ucvol=  2.6663072E+02 bohr^3
 Angles (23,13,12)=  6.00000000E+01  6.00000000E+01  6.00000000E+01 degrees
 
 getcut: wavevector=  0.0000  0.0000  0.0000  ngfft=  36  36  36
         ecut(hartree)=     29.000   => boxcut(ratio)=   2.05556
 
--- Pseudopotential description ------------------------------------------------
- pspini: atom type   1  psp file is Ga.psp8
- pspatm: opening atomic psp file    Ga.psp8
- Ga    ONCVPSP-3.3.0  r_core=   1.66857   1.75011   1.90252
- 31.00000  13.00000    180430                znucl, zion, pspdat
    8 -116133    2    4       600   0.00000   pspcod,pspxc,lmax,lloc,mmax,r2well
    5.99000000000000    5.00000000000000    0.00000000000000   rchrg,fchrg,qchrg
     nproj     2     4     2
     spin-orbit psp, extension_switch     3
        nprojso     4     3
  pspatm : epsatm=   24.51314239
         --- l  ekb(1:nproj) -->
             0    1.158767    7.056324
             1    6.883841    1.296077    0.006208    0.000035
             2   -8.367207   -2.818603
  spin-orbit 1
  spin-orbit 1
  spin-orbit 1
  spin-orbit 1
  spin-orbit 2
  spin-orbit 2
  spin-orbit 2
 pspatm: atomic psp has been read  and splines computed
 
- pspini: atom type   2  psp file is As.psp8
- pspatm: opening atomic psp file    As.psp8
- As    ONCVPSP-3.3.0  r_core=   1.76603   1.70395   1.80867
- 33.00000  15.00000    180430                znucl, zion, pspdat
    8 -116133    2    4       600   0.00000   pspcod,pspxc,lmax,lloc,mmax,r2well
    5.99000000000000    5.00000000000000    0.00000000000000   rchrg,fchrg,qchrg
     nproj     2     4     2
     spin-orbit psp, extension_switch     3
        nprojso     4     3
  pspatm : epsatm=   28.79443881
         --- l  ekb(1:nproj) -->
             0    0.868725    8.270752
             1    4.918619    0.757526    0.005498    0.000037
             2  -10.046656   -4.075565
  spin-orbit 1
  spin-orbit 1
  spin-orbit 1
  spin-orbit 1
  spin-orbit 2
  spin-orbit 2
  spin-orbit 2
 pspatm: atomic psp has been read  and splines computed
 
--------------------------------------------------------------------------------
 
_setup2: Arith. and geom. avg. npw (full set) are    1988.588    1988.572
 
================================================================================

--- !BeginCycle
iteration_state: {dtset: 51, }
solver: {iscf: 7, nstep: 20, nline: 4, wfoptalg: 0, }
tolerances: {toldfe: 1.00E-06, }
...
 
     iter   Etot(hartree)      deltaE(h)  residm     vres2
 ETOT  1  -174.28320720127    -1.743E+02 1.028E+00 7.984E+03
 ETOT  2  -179.47109767402    -5.188E+00 3.561E-01 1.269E+04
 ETOT  3  -181.65282511720    -2.182E+00 1.258E-01 2.257E+03
 ETOT  4  -181.90650502600    -2.537E-01 1.265E-02 1.072E+03
 ETOT  5  -182.02400607429    -1.175E-01 1.432E-02 4.848E+02
 ETOT  6  -182.10333368391    -7.933E-02 1.590E-03 9.401E+01
 ETOT  7  -182.12273704075    -1.940E-02 1.974E-03 1.631E+00
 ETOT  8  -182.12293874192    -2.017E-04 5.163E-04 9.681E-01
 ETOT  9  -182.12314229771    -2.036E-04 5.490E-04 5.335E-02
 ETOT 10  -182.12315378593    -1.149E-05 1.609E-04 4.349E-06
 ETOT 11  -182.12315379909    -1.317E-08 1.504E-04 2.480E-06
 ETOT 12  -182.12315379970    -6.087E-10 4.737E-05 1.266E-07
 
 At SCF step   12, etot is converged : 
  for the second time, diff in etot=  6.087E-10 < toldfe=  1.000E-06
 
 Cartesian components of stress tensor (hartree/bohr^3)
  sigma(1 1)=  4.30785600E-03  sigma(3 2)=  0.00000000E+00
  sigma(2 2)=  4.30785600E-03  sigma(3 1)=  0.00000000E+00
  sigma(3 3)=  4.30785600E-03  sigma(2 1)=  0.00000000E+00
 

--- !ResultsGS
iteration_state: {dtset: 51, }
comment   : Summary of ground state results
lattice_vectors:
- [  0.0000000,   5.1085000,   5.1085000, ]
- [  5.1085000,   0.0000000,   5.1085000, ]
- [  5.1085000,   5.1085000,   0.0000000, ]
lattice_lengths: [   7.22451,    7.22451,    7.22451, ]
lattice_angles: [ 60.000,  60.000,  60.000, ] # degrees, (23, 13, 12)
lattice_volume:   2.6663072E+02
convergence: {deltae: -6.087E-10, res2:  1.266E-07, residm:  4.737E-05, diffor: null, }
etotal    :  -1.82123154E+02
entropy   :   0.00000000E+00
fermie    :   1.94419533E-01
cartesian_stress_tensor: # hartree/bohr^3
- [  4.30785600E-03,   0.00000000E+00,   0.00000000E+00, ]
- [  0.00000000E+00,   4.30785600E-03,   0.00000000E+00, ]
- [  0.00000000E+00,   0.00000000E+00,   4.30785600E-03, ]
pressure_GPa:  -1.2674E+02
xred      :
- [  0.0000E+00,   0.0000E+00,   0.0000E+00, Ga]
- [  2.5000E-01,   2.5000E-01,   2.5000E-01, As]
cartesian_forces: # hartree/bohr
- [  0.00000000E+00,   0.00000000E+00,   0.00000000E+00, ]
- [  0.00000000E+00,   0.00000000E+00,   0.00000000E+00, ]
force_length_stats: {min:   0.00000000E+00, max:   0.00000000E+00, mean:   0.00000000E+00, }
...

 Integrated electronic density in atomic spheres:
 ------------------------------------------------
 Atom  Sphere_radius  Integrated_density
    1        2.00000         10.92370826
    2        2.00000         12.48844696
================================================================================
 
 ----iterations are completed or convergence reached----
 
 Mean square residual over all n,k,spin=   24.925E-08; max=  47.366E-06
[...]
             ecut101   3.40000000E+01 Hartree
             ecut111   3.50000000E+01 Hartree
             ecut121   3.60000000E+01 Hartree
             ecut131   3.70000000E+01 Hartree
             ecut141   3.80000000E+01 Hartree
             ecut151   3.90000000E+01 Hartree
             ecut161   4.00000000E+01 Hartree
             ecut171   4.10000000E+01 Hartree
             ecut181   4.20000000E+01 Hartree
             ecut191   4.30000000E+01 Hartree
             ecut201   4.40000000E+01 Hartree
             ecut211   4.50000000E+01 Hartree
             ecut221   4.60000000E+01 Hartree
             ecut231   4.70000000E+01 Hartree
             ecut241   4.80000000E+01 Hartree
             ecut251   4.90000000E+01 Hartree
           enunit           1
           etotal11   -1.8152907886E+02
           etotal21   -1.8176144823E+02
           etotal31   -1.8192829005E+02
           etotal41   -1.8204235967E+02
           etotal51   -1.8212315380E+02
           etotal61   -1.8217727372E+02
           etotal71   -1.8221225819E+02
           etotal81   -1.8223453456E+02
           etotal91   -1.8224791811E+02
           etotal101  -1.8225638709E+02
           etotal111  -1.8226107721E+02
           etotal121  -1.8226364176E+02
           etotal131  -1.8226494325E+02
           etotal141  -1.8226556194E+02
           etotal151  -1.8226584975E+02
           etotal161  -1.8226595830E+02
           etotal171  -1.8226599366E+02
           etotal181  -1.8226600228E+02
           etotal191  -1.8226600485E+02
           etotal201  -1.8226600815E+02
           etotal211  -1.8226601273E+02
           etotal221  -1.8226601764E+02
           etotal231  -1.8226602173E+02
           etotal241  -1.8226602478E+02
           etotal251  -1.8226602692E+02
            fcart11   -4.2167293306E-28 -4.2167293306E-28  1.2650187992E-27
                       4.2167293306E-28  4.2167293306E-28 -1.2650187992E-27
            fcart21    8.4334586611E-28  8.4334586611E-28 -2.5300375983E-27
                      -8.4334586611E-28 -8.4334586611E-28  2.5300375983E-27
            fcart31   -8.4334586611E-28 -8.4334586611E-28  2.5300375983E-27
                       8.4334586611E-28  8.4334586611E-28 -2.5300375983E-27
            fcart41    5.2709116632E-29  5.2709116632E-29 -1.5812734990E-28
                      -5.2709116632E-29 -5.2709116632E-29  1.5812734990E-28
            fcart51    0.0000000000E+00  0.0000000000E+00  0.0000000000E+00
                       0.0000000000E+00  0.0000000000E+00  0.0000000000E+00
            fcart61    4.2167293306E-28  4.2167293306E-28 -1.2650187992E-27
                      -4.2167293306E-28 -4.2167293306E-28  1.2650187992E-27
            fcart71    0.0000000000E+00  0.0000000000E+00  0.0000000000E+00
                       0.0000000000E+00  0.0000000000E+00  0.0000000000E+00
            fcart81    2.1083646653E-28  2.1083646653E-28 -6.3250939959E-28
                      -2.1083646653E-28 -2.1083646653E-28  6.3250939959E-28
            fcart91    0.0000000000E+00  0.0000000000E+00  0.0000000000E+00
                       0.0000000000E+00  0.0000000000E+00  0.0000000000E+00
            fcart101   0.0000000000E+00  0.0000000000E+00  0.0000000000E+00
                       0.0000000000E+00  0.0000000000E+00  0.0000000000E+00
            fcart111  -2.1083646653E-28 -2.1083646653E-28  6.3250939959E-28
                       2.1083646653E-28  2.1083646653E-28 -6.3250939959E-28
            fcart121   0.0000000000E+00  0.0000000000E+00  0.0000000000E+00
                       0.0000000000E+00  0.0000000000E+00  0.0000000000E+00
            fcart131  -4.2167293306E-28 -4.2167293306E-28  1.2650187992E-27
                       4.2167293306E-28  4.2167293306E-28 -1.2650187992E-27
            fcart141   0.0000000000E+00  0.0000000000E+00  0.0000000000E+00
                       0.0000000000E+00  0.0000000000E+00  0.0000000000E+00
            fcart151   0.0000000000E+00  0.0000000000E+00  0.0000000000E+00
                       0.0000000000E+00  0.0000000000E+00  0.0000000000E+00
            fcart161   0.0000000000E+00  0.0000000000E+00  0.0000000000E+00
                       0.0000000000E+00  0.0000000000E+00  0.0000000000E+00
            fcart171   0.0000000000E+00  0.0000000000E+00  0.0000000000E+00
                       0.0000000000E+00  0.0000000000E+00  0.0000000000E+00
            fcart181   5.2709116632E-29  5.2709116632E-29 -1.5812734990E-28
                      -5.2709116632E-29 -5.2709116632E-29  1.5812734990E-28
            fcart191   2.1083646653E-28  2.1083646653E-28 -6.3250939959E-28
                      -2.1083646653E-28 -2.1083646653E-28  6.3250939959E-28
            fcart201   2.1083646653E-28  2.1083646653E-28 -6.3250939959E-28
                      -2.1083646653E-28 -2.1083646653E-28  6.3250939959E-28
            fcart211   5.2709116632E-29  5.2709116632E-29 -1.5812734990E-28
                      -5.2709116632E-29 -5.2709116632E-29  1.5812734990E-28
            fcart221   0.0000000000E+00  0.0000000000E+00  0.0000000000E+00
                       0.0000000000E+00  0.0000000000E+00  0.0000000000E+00
            fcart231  -2.1083646653E-28 -2.1083646653E-28  6.3250939959E-28
                       2.1083646653E-28  2.1083646653E-28 -6.3250939959E-28
            fcart241   1.0541823326E-28  1.0541823326E-28 -3.1625469979E-28
                      -1.0541823326E-28 -1.0541823326E-28  3.1625469979E-28
            fcart251   1.0541823326E-28  1.0541823326E-28 -3.1625469979E-28
                      -1.0541823326E-28 -1.0541823326E-28  3.1625469979E-28
-          fftalg         112
           istwfk        2    0    0    3    0    0    0    0    0    0
                         0    0    7    0    0    0
              ixc     -116133
           jdtset       11   21   31   41   51   61   71   81   91  101
                       111  121  131  141  151  161  171  181  191  201
                       211  221  231  241  251
              kpt      0.00000000E+00  0.00000000E+00  0.00000000E+00
                       1.66666667E-01  0.00000000E+00  0.00000000E+00
                       3.33333333E-01  0.00000000E+00  0.00000000E+00
                       5.00000000E-01  0.00000000E+00  0.00000000E+00
                       1.66666667E-01  1.66666667E-01  0.00000000E+00
                       3.33333333E-01  1.66666667E-01  0.00000000E+00
                       5.00000000E-01  1.66666667E-01  0.00000000E+00
                      -3.33333333E-01  1.66666667E-01  0.00000000E+00
                      -1.66666667E-01  1.66666667E-01  0.00000000E+00
                       3.33333333E-01  3.33333333E-01  0.00000000E+00
                       5.00000000E-01  3.33333333E-01  0.00000000E+00
                      -3.33333333E-01  3.33333333E-01  0.00000000E+00
                       5.00000000E-01  5.00000000E-01  0.00000000E+00
                       5.00000000E-01  3.33333333E-01  1.66666667E-01
                      -3.33333333E-01  3.33333333E-01  1.66666667E-01
                      -3.33333333E-01  5.00000000E-01  1.66666667E-01
         kptrlatt        6    0    0      0    6    0      0    0    6
          kptrlen      4.33470599E+01
P           mkmem          16
            natom           2
            nband          15
           ndtset          25
           ndivsm          20
            ngfft11        36      36      36
            ngfft21        36      36      36
            ngfft31        36      36      36
            ngfft41        36      36      36
            ngfft51        36      36      36
            ngfft61        36      36      36
            ngfft71        40      40      40
            ngfft81        40      40      40
            ngfft91        40      40      40
            ngfft101       40      40      40
            ngfft111       40      40      40
            ngfft121       40      40      40
            ngfft131       40      40      40
            ngfft141       45      45      45
            ngfft151       45      45      45
            ngfft161       45      45      45
            ngfft171       45      45      45
            ngfft181       45      45      45
            ngfft191       45      45      45
            ngfft201       45      45      45
            ngfft211       45      45      45
            ngfft221       48      48      48
            ngfft231       48      48      48
            ngfft241       48      48      48
            ngfft251       48      48      48
             nkpt          16
            nstep          20
             nsym          24
           ntypat           2
              occ      2.000000  2.000000  2.000000  2.000000  2.000000  2.000000
                       2.000000  2.000000  2.000000  2.000000  2.000000  2.000000
                       2.000000  2.000000  0.000000
            rprim      0.0000000000E+00  5.0000000000E-01  5.0000000000E-01
                       5.0000000000E-01  0.0000000000E+00  5.0000000000E-01
                       5.0000000000E-01  5.0000000000E-01  0.0000000000E+00
          spgroup         216
           strten11    1.6349578683E-02  1.6349578683E-02  1.6349578683E-02
                       0.0000000000E+00  0.0000000000E+00  0.0000000000E+00
           strten21    1.2234526641E-02  1.2234526641E-02  1.2234526641E-02
                       0.0000000000E+00  0.0000000000E+00  0.0000000000E+00
           strten31    8.8947422307E-03  8.8947422307E-03  8.8947422307E-03
                       0.0000000000E+00  0.0000000000E+00  0.0000000000E+00
           strten41    6.3330770700E-03  6.3330770700E-03  6.3330770700E-03
                       0.0000000000E+00  0.0000000000E+00  0.0000000000E+00
           strten51    4.3078560047E-03  4.3078560047E-03  4.3078560047E-03
                       0.0000000000E+00  0.0000000000E+00  0.0000000000E+00
           strten61    2.7957246511E-03  2.7957246511E-03  2.7957246511E-03
                       0.0000000000E+00  0.0000000000E+00  0.0000000000E+00
           strten71    1.7099673338E-03  1.7099673338E-03  1.7099673338E-03
                       0.0000000000E+00  0.0000000000E+00  0.0000000000E+00
           strten81    9.4239512630E-04  9.4239512630E-04  9.4239512630E-04
                       0.0000000000E+00  0.0000000000E+00  0.0000000000E+00
           strten91    4.3072903377E-04  4.3072903377E-04  4.3072903377E-04
                       0.0000000000E+00  0.0000000000E+00  0.0000000000E+00
           strten101   7.2058055045E-05  7.2058055045E-05  7.2058055045E-05
                       0.0000000000E+00  0.0000000000E+00  0.0000000000E+00
           strten111  -1.5054174984E-04 -1.5054174984E-04 -1.5054174984E-04
                       0.0000000000E+00  0.0000000000E+00  0.0000000000E+00
           strten121  -2.8765599072E-04 -2.8765599072E-04 -2.8765599072E-04
                       0.0000000000E+00  0.0000000000E+00  0.0000000000E+00
           strten131  -3.6470045916E-04 -3.6470045916E-04 -3.6470045916E-04
                       0.0000000000E+00  0.0000000000E+00  0.0000000000E+00
           strten141  -4.0949520516E-04 -4.0949520516E-04 -4.0949520516E-04
                       0.0000000000E+00  0.0000000000E+00  0.0000000000E+00
           strten151  -4.3300462867E-04 -4.3300462867E-04 -4.3300462867E-04
                       0.0000000000E+00  0.0000000000E+00  0.0000000000E+00
           strten161  -4.4387566126E-04 -4.4387566126E-04 -4.4387566126E-04
                       0.0000000000E+00  0.0000000000E+00  0.0000000000E+00
           strten171  -4.4815765564E-04 -4.4815765564E-04 -4.4815765564E-04
                       0.0000000000E+00  0.0000000000E+00  0.0000000000E+00
           strten181  -4.4968178947E-04 -4.4968178947E-04 -4.4968178947E-04
                       0.0000000000E+00  0.0000000000E+00  0.0000000000E+00
           strten191  -4.4948687319E-04 -4.4948687319E-04 -4.4948687319E-04
                       0.0000000000E+00  0.0000000000E+00  0.0000000000E+00
           strten201  -4.4934539471E-04 -4.4934539471E-04 -4.4934539471E-04
                       0.0000000000E+00  0.0000000000E+00  0.0000000000E+00
           strten211  -4.4950784847E-04 -4.4950784847E-04 -4.4950784847E-04
                       0.0000000000E+00  0.0000000000E+00  0.0000000000E+00
           strten221  -4.4895430065E-04 -4.4895430065E-04 -4.4895430065E-04
                       0.0000000000E+00  0.0000000000E+00  0.0000000000E+00
           strten231  -4.4940260504E-04 -4.4940260504E-04 -4.4940260504E-04
                       0.0000000000E+00  0.0000000000E+00  0.0000000000E+00
           strten241  -4.4973653191E-04 -4.4973653191E-04 -4.4973653191E-04
                       0.0000000000E+00  0.0000000000E+00  0.0000000000E+00
           strten251  -4.4978665933E-04 -4.4978665933E-04 -4.4978665933E-04
                       0.0000000000E+00  0.0000000000E+00  0.0000000000E+00
           symrel      1  0  0   0  1  0   0  0  1       0 -1  1   0 -1  0   1 -1  0
                      -1  0  0  -1  0  1  -1  1  0       0  1 -1   1  0 -1   0  0 -1
                      -1  0  0  -1  1  0  -1  0  1       0 -1  1   1 -1  0   0 -1  0
                       1  0  0   0  0  1   0  1  0       0  1 -1   0  0 -1   1  0 -1
                      -1  0  1  -1  1  0  -1  0  0       0 -1  0   1 -1  0   0 -1  1
                       1  0 -1   0  0 -1   0  1 -1       0  1  0   0  0  1   1  0  0
                       1  0 -1   0  1 -1   0  0 -1       0 -1  0   0 -1  1   1 -1  0
                      -1  0  1  -1  0  0  -1  1  0       0  1  0   1  0  0   0  0  1
                       0  0 -1   0  1 -1   1  0 -1       1 -1  0   0 -1  1   0 -1  0
                       0  0  1   1  0  0   0  1  0      -1  1  0  -1  0  0  -1  0  1
                       0  0  1   0  1  0   1  0  0       1 -1  0   0 -1  0   0 -1  1
                       0  0 -1   1  0 -1   0  1 -1      -1  1  0  -1  0  1  -1  0  0
           toldfe      1.00000000E-06 Hartree
            typat      1  2
              wtk        0.00463    0.03704    0.03704    0.01852    0.02778    0.11111
                         0.11111    0.11111    0.05556    0.02778    0.11111    0.05556
                         0.01389    0.11111    0.11111    0.05556
           xangst      0.0000000000E+00  0.0000000000E+00  0.0000000000E+00
                       1.3516508850E+00  1.3516508850E+00  1.3516508850E+00
            xcart      0.0000000000E+00  0.0000000000E+00  0.0000000000E+00
                       2.5542500000E+00  2.5542500000E+00  2.5542500000E+00
             xred      0.0000000000E+00  0.0000000000E+00  0.0000000000E+00
                       2.5000000000E-01  2.5000000000E-01  2.5000000000E-01
            znucl       31.00000   33.00000
 
================================================================================


- Timing analysis has been suppressed with timopt=0



================================================================================

 Suggested references for the acknowledgment of ABINIT usage.

 The users of ABINIT have little formal obligations with respect to the ABINIT group
 (those specified in the GNU General Public License, http://www.gnu.org/copyleft/gpl.txt).
 However, it is common practice in the scientific literature,
 to acknowledge the efforts of people that have made the research possible.
 In this spirit, please find below suggested citations of work written by ABINIT developers,
 corresponding to implementations inside of ABINIT that you have used in the present run.
 Note also that it will be of great value to readers of publications presenting these results,
 to read papers enabling them to understand the theoretical formalism and details
 of the ABINIT implementation.
 For information on why they are suggested, see also https://docs.abinit.org/theory/acknowledgments.
-
- [1] Libxc: A library of exchange and correlation functionals for density functional theory.
- M.A.L. Marques, M.J.T. Oliveira, T. Burnus, Computer Physics Communications 183, 2227 (2012).
- Comment: to be cited when LibXC is used (negative value of ixc)
- Strong suggestion to cite this paper.
- DOI and bibtex: see https://docs.abinit.org/theory/bibliography/#marques2012
-
- [2] The Abinit project: Impact, environment and recent developments.
- Computer Phys. Comm. 248, 107042 (2020).
- X.Gonze, B. Amadon, G. Antonius, F.Arnardi, L.Baguet, J.-M.Beuken,
- J.Bieder, F.Bottin, J.Bouchet, E.Bousquet, N.Brouwer, F.Bruneval,
- G.Brunin, T.Cavignac, J.-B. Charraud, Wei Chen, M.Cote, S.Cottenier,
- J.Denier, G.Geneste, Ph.Ghosez, M.Giantomassi, Y.Gillet, O.Gingras,
- D.R.Hamann, G.Hautier, Xu He, N.Helbig, N.Holzwarth, Y.Jia, F.Jollet,
- W.Lafargue-Dit-Hauret, K.Lejaeghere, M.A.L.Marques, A.Martin, C.Martins,
- H.P.C. Miranda, F.Naccarato, K. Persson, G.Petretto, V.Planes, Y.Pouillon,
- S.Prokhorenko, F.Ricci, G.-M.Rignanese, A.H.Romero, M.M.Schmitt, M.Torrent,
- M.J.van Setten, B.Van Troeye, M.J.Verstraete, G.Zerah and J.W.Zwanzig
- Comment: the fifth generic paper describing the ABINIT project.
- Note that a version of this paper, that is not formatted for Computer Phys. Comm. 
- is available at https://www.abinit.org/sites/default/files/ABINIT20.pdf .
- The licence allows the authors to put it on the Web.
- DOI and bibtex: see https://docs.abinit.org/theory/bibliography/#gonze2020
-
- [3] Optimized norm-conserving Vanderbilt pseudopotentials.
- D.R. Hamann, Phys. Rev. B 88, 085117 (2013).
- Comment: Some pseudopotential generated using the ONCVPSP code were used.
- DOI and bibtex: see https://docs.abinit.org/theory/bibliography/#hamann2013
-
- [4] ABINIT: Overview, and focus on selected capabilities
- J. Chem. Phys. 152, 124102 (2020).
- A. Romero, D.C. Allan, B. Amadon, G. Antonius, T. Applencourt, L.Baguet,
- J.Bieder, F.Bottin, J.Bouchet, E.Bousquet, F.Bruneval,
- G.Brunin, D.Caliste, M.Cote,
- J.Denier, C. Dreyer, Ph.Ghosez, M.Giantomassi, Y.Gillet, O.Gingras,
- D.R.Hamann, G.Hautier, F.Jollet, G. Jomard,
- A.Martin, 
- H.P.C. Miranda, F.Naccarato, G.Petretto, N.A. Pike, V.Planes,
- S.Prokhorenko, T. Rangel, F.Ricci, G.-M.Rignanese, M.Royo, M.Stengel, M.Torrent,
- M.J.van Setten, B.Van Troeye, M.J.Verstraete, J.Wiktor, J.W.Zwanziger, and X.Gonze.
- Comment: a global overview of ABINIT, with focus on selected capabilities .
- Note that a version of this paper, that is not formatted for J. Chem. Phys 
- is available at https://www.abinit.org/sites/default/files/ABINIT20_JPC.pdf .
- The licence allows the authors to put it on the Web.
- DOI and bibtex: see https://docs.abinit.org/theory/bibliography/#romero2020
-
- [5] Recent developments in the ABINIT software package.
- Computer Phys. Comm. 205, 106 (2016).
- X.Gonze, F.Jollet, F.Abreu Araujo, D.Adams, B.Amadon, T.Applencourt,
- C.Audouze, J.-M.Beuken, J.Bieder, A.Bokhanchuk, E.Bousquet, F.Bruneval
- D.Caliste, M.Cote, F.Dahm, F.Da Pieve, M.Delaveau, M.Di Gennaro,
- B.Dorado, C.Espejo, G.Geneste, L.Genovese, A.Gerossier, M.Giantomassi,
- Y.Gillet, D.R.Hamann, L.He, G.Jomard, J.Laflamme Janssen, S.Le Roux,
- A.Levitt, A.Lherbier, F.Liu, I.Lukacevic, A.Martin, C.Martins,
- M.J.T.Oliveira, S.Ponce, Y.Pouillon, T.Rangel, G.-M.Rignanese,
- A.H.Romero, B.Rousseau, O.Rubel, A.A.Shukri, M.Stankovski, M.Torrent,
- M.J.Van Setten, B.Van Troeye, M.J.Verstraete, D.Waroquier, J.Wiktor,
- B.Xu, A.Zhou, J.W.Zwanziger.
- Comment: the fourth generic paper describing the ABINIT project.
- Note that a version of this paper, that is not formatted for Computer Phys. Comm. 
- is available at https://www.abinit.org/sites/default/files/ABINIT16.pdf .
- The licence allows the authors to put it on the Web.
- DOI and bibtex: see https://docs.abinit.org/theory/bibliography/#gonze2016
-
- Proc.   0 individual time (sec): cpu=       5519.7  wall=       1005.5
 
================================================================================
 
 Calculation completed.
.Delivered   0 WARNINGs and  86 COMMENTs to log file.
+Overall time at end (sec) : cpu=       5519.7  wall=       1005.5
