
.Version 10.0.3 of ABINIT, released Apr 2024.
.(MPI version, prepared for a x86_64_linux_intel2021.10 computer) 

.Copyright (C) 1998-2024 ABINIT group . 
 ABINIT comes with ABSOLUTELY NO WARRANTY.
 It is free software, and you are welcome to redistribute it
 under certain conditions (GNU General Public License,
 see ~abinit/COPYING or http://www.gnu.org/copyleft/gpl.txt).

 ABINIT is a project of the Universite Catholique de Louvain,
 Corning Inc. and other collaborators, see ~abinit/doc/developers/contributors.txt .
 Please read https://docs.abinit.org/theory/acknowledgments for suggested
 acknowledgments of the ABINIT effort.
 For more information, see https://www.abinit.org .

.Starting date : Fri 24 May 2024.
- ( at 00h13 )
  
- input  file    -> ngkpt.abi
- output file    -> ngkpt.abo
- root for input  files -> ngkpti
- root for output files -> ngkpto
 
 DATASET   11 : space group F-4 3 m (#216); Bravais cF (face-center cubic)
================================================================================
 Values of the parameters that define the memory need for DATASET 11.
     intxc =       0    ionmov =       0      iscf =       7    lmnmax =       8
     lnmax =       8     mgfft =      45  mpssoang =       3    mqgrid =    3001
     natom =       2  nloc_mem =       1    nspden =       1   nspinor =       1
    nsppol =       1      nsym =      24    n1xccc =    2501    ntypat =       2
    occopt =       1   xclevel =       2
-    mband =          15        mffmem =           1         mkmem =           1
       mpw =        1488          nfft =       91125          nkpt =           1
================================================================================
P This job should need less than                      30.903 Mbytes of memory.
  Rough estimation (10% accuracy) of disk space for files :
_ WF disk file :      0.343 Mbytes ; DEN or POT disk file :      0.697 Mbytes.
================================================================================
 
 DATASET   21 : space group F-4 3 m (#216); Bravais cF (face-center cubic)
================================================================================
 Values of the parameters that define the memory need for DATASET 21.
     intxc =       0    ionmov =       0      iscf =       7    lmnmax =       8
     lnmax =       8     mgfft =      45  mpssoang =       3    mqgrid =    3001
     natom =       2  nloc_mem =       1    nspden =       1   nspinor =       1
    nsppol =       1      nsym =      24    n1xccc =    2501    ntypat =       2
    occopt =       1   xclevel =       2
-    mband =          15        mffmem =           1         mkmem =           3
       mpw =        1499          nfft =       91125          nkpt =           3
================================================================================
P This job should need less than                      31.627 Mbytes of memory.
  Rough estimation (10% accuracy) of disk space for files :
_ WF disk file :      1.031 Mbytes ; DEN or POT disk file :      0.697 Mbytes.
================================================================================
 
 DATASET   31 : space group F-4 3 m (#216); Bravais cF (face-center cubic)
================================================================================
 Values of the parameters that define the memory need for DATASET 31.
     intxc =       0    ionmov =       0      iscf =       7    lmnmax =       8
     lnmax =       8     mgfft =      45  mpssoang =       3    mqgrid =    3001
     natom =       2  nloc_mem =       1    nspden =       1   nspinor =       1
    nsppol =       1      nsym =      24    n1xccc =    2501    ntypat =       2
    occopt =       1   xclevel =       2
-    mband =          15        mffmem =           1         mkmem =           4
       mpw =        2978          nfft =       91125          nkpt =           4
================================================================================
P This job should need less than                      33.409 Mbytes of memory.
  Rough estimation (10% accuracy) of disk space for files :
_ WF disk file :      2.728 Mbytes ; DEN or POT disk file :      0.697 Mbytes.
================================================================================
 
 DATASET   41 : space group F-4 3 m (#216); Bravais cF (face-center cubic)
================================================================================
 Values of the parameters that define the memory need for DATASET 41.
     intxc =       0    ionmov =       0      iscf =       7    lmnmax =       8
     lnmax =       8     mgfft =      45  mpssoang =       3    mqgrid =    3001
     natom =       2  nloc_mem =       1    nspden =       1   nspinor =       1
    nsppol =       1      nsym =      24    n1xccc =    2501    ntypat =       2
    occopt =       1   xclevel =       2
-    mband =          15        mffmem =           1         mkmem =           8
       mpw =        2996          nfft =       91125          nkpt =           8
================================================================================
P This job should need less than                      36.308 Mbytes of memory.
  Rough estimation (10% accuracy) of disk space for files :
_ WF disk file :      5.488 Mbytes ; DEN or POT disk file :      0.697 Mbytes.
================================================================================
 
 DATASET   51 : space group F-4 3 m (#216); Bravais cF (face-center cubic)
================================================================================
 Values of the parameters that define the memory need for DATASET 51.
     intxc =       0    ionmov =       0      iscf =       7    lmnmax =       8
     lnmax =       8     mgfft =      45  mpssoang =       3    mqgrid =    3001
     natom =       2  nloc_mem =       1    nspden =       1   nspinor =       1
    nsppol =       1      nsym =      24    n1xccc =    2501    ntypat =       2
    occopt =       1   xclevel =       2
-    mband =          15        mffmem =           1         mkmem =          10
       mpw =        2992          nfft =       91125          nkpt =          10
================================================================================
P This job should need less than                      37.739 Mbytes of memory.
  Rough estimation (10% accuracy) of disk space for files :
_ WF disk file :      6.850 Mbytes ; DEN or POT disk file :      0.697 Mbytes.
================================================================================
 
 DATASET   61 : space group F-4 3 m (#216); Bravais cF (face-center cubic)
================================================================================
 Values of the parameters that define the memory need for DATASET 61.
     intxc =       0    ionmov =       0      iscf =       7    lmnmax =       8
     lnmax =       8     mgfft =      45  mpssoang =       3    mqgrid =    3001
     natom =       2  nloc_mem =       1    nspden =       1   nspinor =       1
    nsppol =       1      nsym =      24    n1xccc =    2501    ntypat =       2
    occopt =       1   xclevel =       2
-    mband =          15        mffmem =           1         mkmem =          16
       mpw =        2993          nfft =       91125          nkpt =          16
================================================================================
P This job should need less than                      42.059 Mbytes of memory.
  Rough estimation (10% accuracy) of disk space for files :
_ WF disk file :     10.963 Mbytes ; DEN or POT disk file :      0.697 Mbytes.
================================================================================
 
 DATASET   71 : space group F-4 3 m (#216); Bravais cF (face-center cubic)
================================================================================
 Values of the parameters that define the memory need for DATASET 71.
     intxc =       0    ionmov =       0      iscf =       7    lmnmax =       8
     lnmax =       8     mgfft =      45  mpssoang =       3    mqgrid =    3001
     natom =       2  nloc_mem =       1    nspden =       1   nspinor =       1
    nsppol =       1      nsym =      24    n1xccc =    2501    ntypat =       2
    occopt =       1   xclevel =       2
-    mband =          15        mffmem =           1         mkmem =          20
       mpw =        3002          nfft =       91125          nkpt =          20
================================================================================
P This job should need less than                      44.981 Mbytes of memory.
  Rough estimation (10% accuracy) of disk space for files :
_ WF disk file :     13.744 Mbytes ; DEN or POT disk file :      0.697 Mbytes.
================================================================================
 
 DATASET   81 : space group F-4 3 m (#216); Bravais cF (face-center cubic)
================================================================================
 Values of the parameters that define the memory need for DATASET 81.
     intxc =       0    ionmov =       0      iscf =       7    lmnmax =       8
     lnmax =       8     mgfft =      45  mpssoang =       3    mqgrid =    3001
     natom =       2  nloc_mem =       1    nspden =       1   nspinor =       1
    nsppol =       1      nsym =      24    n1xccc =    2501    ntypat =       2
    occopt =       1   xclevel =       2
-    mband =          15        mffmem =           1         mkmem =          29
       mpw =        2996          nfft =       91125          nkpt =          29
================================================================================
P This job should need less than                      51.435 Mbytes of memory.
  Rough estimation (10% accuracy) of disk space for files :
_ WF disk file :     19.888 Mbytes ; DEN or POT disk file :      0.697 Mbytes.
================================================================================
 
 DATASET   91 : space group F-4 3 m (#216); Bravais cF (face-center cubic)
================================================================================
 Values of the parameters that define the memory need for DATASET 91.
     intxc =       0    ionmov =       0      iscf =       7    lmnmax =       8
     lnmax =       8     mgfft =      45  mpssoang =       3    mqgrid =    3001
     natom =       2  nloc_mem =       1    nspden =       1   nspinor =       1
    nsppol =       1      nsym =      24    n1xccc =    2501    ntypat =       2
    occopt =       1   xclevel =       2
-    mband =          15        mffmem =           1         mkmem =          35
       mpw =        3002          nfft =       91125          nkpt =          35
================================================================================
P This job should need less than                      55.808 Mbytes of memory.
  Rough estimation (10% accuracy) of disk space for files :
_ WF disk file :     24.051 Mbytes ; DEN or POT disk file :      0.697 Mbytes.
================================================================================
 
 DATASET  101 : space group F-4 3 m (#216); Bravais cF (face-center cubic)
================================================================================
 Values of the parameters that define the memory need for DATASET  101.
     intxc =       0    ionmov =       0      iscf =       7    lmnmax =       8
     lnmax =       8     mgfft =      45  mpssoang =       3    mqgrid =    3001
     natom =       2  nloc_mem =       1    nspden =       1   nspinor =       1
    nsppol =       1      nsym =      24    n1xccc =    2501    ntypat =       2
    occopt =       1   xclevel =       2
-    mband =          15        mffmem =           1         mkmem =          47
       mpw =        3000          nfft =       91125          nkpt =          47
================================================================================
P This job should need less than                      64.447 Mbytes of memory.
  Rough estimation (10% accuracy) of disk space for files :
_ WF disk file :     32.274 Mbytes ; DEN or POT disk file :      0.697 Mbytes.
================================================================================
 
 DATASET  111 : space group F-4 3 m (#216); Bravais cF (face-center cubic)
================================================================================
 Values of the parameters that define the memory need for DATASET  111.
     intxc =       0    ionmov =       0      iscf =       7    lmnmax =       8
     lnmax =       8     mgfft =      45  mpssoang =       3    mqgrid =    3001
     natom =       2  nloc_mem =       1    nspden =       1   nspinor =       1
    nsppol =       1      nsym =      24    n1xccc =    2501    ntypat =       2
    occopt =       1   xclevel =       2
-    mband =          15        mffmem =           1         mkmem =          56
       mpw =        3005          nfft =       91125          nkpt =          56
================================================================================
P This job should need less than                      71.006 Mbytes of memory.
  Rough estimation (10% accuracy) of disk space for files :
_ WF disk file :     38.518 Mbytes ; DEN or POT disk file :      0.697 Mbytes.
================================================================================
 
 DATASET  121 : space group F-4 3 m (#216); Bravais cF (face-center cubic)
================================================================================
 Values of the parameters that define the memory need for DATASET  121.
     intxc =       0    ionmov =       0      iscf =       7    lmnmax =       8
     lnmax =       8     mgfft =      45  mpssoang =       3    mqgrid =    3001
     natom =       2  nloc_mem =       1    nspden =       1   nspinor =       1
    nsppol =       1      nsym =      24    n1xccc =    2501    ntypat =       2
    occopt =       1   xclevel =       2
-    mband =          15        mffmem =           1         mkmem =          72
       mpw =        3005          nfft =       91125          nkpt =          72
================================================================================
P This job should need less than                      82.567 Mbytes of memory.
  Rough estimation (10% accuracy) of disk space for files :
_ WF disk file :     49.523 Mbytes ; DEN or POT disk file :      0.697 Mbytes.
================================================================================
 
 DATASET  131 : space group F-4 3 m (#216); Bravais cF (face-center cubic)
================================================================================
 Values of the parameters that define the memory need for DATASET  131.
     intxc =       0    ionmov =       0      iscf =       7    lmnmax =       8
     lnmax =       8     mgfft =      45  mpssoang =       3    mqgrid =    3001
     natom =       2  nloc_mem =       1    nspden =       1   nspinor =       1
    nsppol =       1      nsym =      24    n1xccc =    2501    ntypat =       2
    occopt =       1   xclevel =       2
-    mband =          15        mffmem =           1         mkmem =          84
       mpw =        3003          nfft =       91125          nkpt =          84
================================================================================
P This job should need less than                      91.197 Mbytes of memory.
  Rough estimation (10% accuracy) of disk space for files :
_ WF disk file :     57.738 Mbytes ; DEN or POT disk file :      0.697 Mbytes.
================================================================================
 
 DATASET  141 : space group F-4 3 m (#216); Bravais cF (face-center cubic)
================================================================================
 Values of the parameters that define the memory need for DATASET  141.
     intxc =       0    ionmov =       0      iscf =       7    lmnmax =       8
     lnmax =       8     mgfft =      45  mpssoang =       3    mqgrid =    3001
     natom =       2  nloc_mem =       1    nspden =       1   nspinor =       1
    nsppol =       1      nsym =      24    n1xccc =    2501    ntypat =       2
    occopt =       1   xclevel =       2
-    mband =          15        mffmem =           1         mkmem =         104
       mpw =        3008          nfft =       91125          nkpt =         104
================================================================================
P This job should need less than                     105.762 Mbytes of memory.
  Rough estimation (10% accuracy) of disk space for files :
_ WF disk file :     71.604 Mbytes ; DEN or POT disk file :      0.697 Mbytes.
================================================================================
 
 DATASET  151 : space group F-4 3 m (#216); Bravais cF (face-center cubic)
================================================================================
 Values of the parameters that define the memory need for DATASET  151.
     intxc =       0    ionmov =       0      iscf =       7    lmnmax =       8
     lnmax =       8     mgfft =      45  mpssoang =       3    mqgrid =    3001
     natom =       2  nloc_mem =       1    nspden =       1   nspinor =       1
    nsppol =       1      nsym =      24    n1xccc =    2501    ntypat =       2
    occopt =       1   xclevel =       2
-    mband =          15        mffmem =           1         mkmem =         120
       mpw =        3004          nfft =       91125          nkpt =         120
================================================================================
P This job should need less than                     117.219 Mbytes of memory.
  Rough estimation (10% accuracy) of disk space for files :
_ WF disk file :     82.509 Mbytes ; DEN or POT disk file :      0.697 Mbytes.
================================================================================
 
--------------------------------------------------------------------------------
------------- Echo of variables that govern the present computation ------------
--------------------------------------------------------------------------------
-
- outvars: echo of selected default values                                      
-   iomode0 =  0 , fftalg0 =112 , wfoptalg0 =  0
-
- outvars: echo of global parameters not present in the input file              
-  max_nthreads =    6
-
 -outvars: echo values of preprocessed input variables --------
            acell      1.0217000000E+01  1.0217000000E+01  1.0217000000E+01 Bohr
              amu      6.97230000E+01  7.49215900E+01
           diemac      1.20000000E+01
             ecut      3.80000000E+01 Hartree
           enunit           1
-          fftalg         112
           istwfk11      2
           istwfk21      2    3    7
           istwfk31      2    0    0    0
           istwfk41      2    0    3    0    0    0    7    0
           istwfk51      2    0    0    0    0    0    0    0    0    0
           istwfk61      2    0    0    3    0    0    0    0    0    0
                         0    0    7    0    0    0
           istwfk71      2    0    0    0    0    0    0    0    0    0
                         0    0    0    0    0    0    0    0    0    0
           istwfk81      2    0    0    0    3    0    0    0    0    0
                         0    0    0    0    0    0    0    0    0    0
                         7    0    0    0    0    0    0    0    0
           istwfk91      2    0    0    0    0    0    0    0    0    0
                         0    0    0    0    0    0    0    0    0    0
                         0    0    0    0    0    0    0    0    0    0
                         0    0    0    0    0
           istwfk101     2    0    0    0    0    3    0    0    0    0
                         0    0    0    0    0    0    0    0    0    0
                         0    0    0    0    0    0    0    0    0    0
                         7    0    0    0    0    0    0    0    0    0
                         0    0    0    0    0    0    0
           istwfk111     2    0    0    0    0    0    0    0    0    0
                         0    0    0    0    0    0    0    0    0    0
                         0    0    0    0    0    0    0    0    0    0
                         0    0    0    0    0    0    0    0    0    0
                         0    0    0    0    0    0    0    0    0    0
           istwfk121     2    0    0    0    0    0    3    0    0    0
                         0    0    0    0    0    0    0    0    0    0
                         0    0    0    0    0    0    0    0    0    0
                         0    0    0    0    0    0    0    0    0    0
                         0    0    7    0    0    0    0    0    0    0
           istwfk131     2    0    0    0    0    0    0    0    0    0
                         0    0    0    0    0    0    0    0    0    0
                         0    0    0    0    0    0    0    0    0    0
                         0    0    0    0    0    0    0    0    0    0
                         0    0    0    0    0    0    0    0    0    0
           istwfk141     2    0    0    0    0    0    0    3    0    0
                         0    0    0    0    0    0    0    0    0    0
                         0    0    0    0    0    0    0    0    0    0
                         0    0    0    0    0    0    0    0    0    0
                         0    0    0    0    0    0    0    0    0    0
           istwfk151     2    0    0    0    0    0    0    0    0    0
                         0    0    0    0    0    0    0    0    0    0
                         0    0    0    0    0    0    0    0    0    0
                         0    0    0    0    0    0    0    0    0    0
                         0    0    0    0    0    0    0    0    0    0
                       outvar_i_n : Printing only first  50 k-points.
              ixc     -116133
           jdtset       11   21   31   41   51   61   71   81   91  101
                       111  121  131  141  151
              kpt11    0.00000000E+00  0.00000000E+00  0.00000000E+00
              kpt21    0.00000000E+00  0.00000000E+00  0.00000000E+00
                       5.00000000E-01  0.00000000E+00  0.00000000E+00
                       5.00000000E-01  5.00000000E-01  0.00000000E+00
              kpt31    0.00000000E+00  0.00000000E+00  0.00000000E+00
                       3.33333333E-01  0.00000000E+00  0.00000000E+00
                       3.33333333E-01  3.33333333E-01  0.00000000E+00
                      -3.33333333E-01  3.33333333E-01  0.00000000E+00
              kpt41    0.00000000E+00  0.00000000E+00  0.00000000E+00
                       2.50000000E-01  0.00000000E+00  0.00000000E+00
                       5.00000000E-01  0.00000000E+00  0.00000000E+00
                       2.50000000E-01  2.50000000E-01  0.00000000E+00
                       5.00000000E-01  2.50000000E-01  0.00000000E+00
                      -2.50000000E-01  2.50000000E-01  0.00000000E+00
                       5.00000000E-01  5.00000000E-01  0.00000000E+00
                      -2.50000000E-01  5.00000000E-01  2.50000000E-01
              kpt51    0.00000000E+00  0.00000000E+00  0.00000000E+00
                       2.00000000E-01  0.00000000E+00  0.00000000E+00
                       4.00000000E-01  0.00000000E+00  0.00000000E+00
                       2.00000000E-01  2.00000000E-01  0.00000000E+00
                       4.00000000E-01  2.00000000E-01  0.00000000E+00
                      -4.00000000E-01  2.00000000E-01  0.00000000E+00
                      -2.00000000E-01  2.00000000E-01  0.00000000E+00
                       4.00000000E-01  4.00000000E-01  0.00000000E+00
                      -4.00000000E-01  4.00000000E-01  0.00000000E+00
                      -4.00000000E-01  4.00000000E-01  2.00000000E-01
              kpt61    0.00000000E+00  0.00000000E+00  0.00000000E+00
                       1.66666667E-01  0.00000000E+00  0.00000000E+00
                       3.33333333E-01  0.00000000E+00  0.00000000E+00
                       5.00000000E-01  0.00000000E+00  0.00000000E+00
                       1.66666667E-01  1.66666667E-01  0.00000000E+00
                       3.33333333E-01  1.66666667E-01  0.00000000E+00
                       5.00000000E-01  1.66666667E-01  0.00000000E+00
                      -3.33333333E-01  1.66666667E-01  0.00000000E+00
                      -1.66666667E-01  1.66666667E-01  0.00000000E+00
                       3.33333333E-01  3.33333333E-01  0.00000000E+00
                       5.00000000E-01  3.33333333E-01  0.00000000E+00
                      -3.33333333E-01  3.33333333E-01  0.00000000E+00
                       5.00000000E-01  5.00000000E-01  0.00000000E+00
                       5.00000000E-01  3.33333333E-01  1.66666667E-01
                      -3.33333333E-01  3.33333333E-01  1.66666667E-01
                      -3.33333333E-01  5.00000000E-01  1.66666667E-01
              kpt71    0.00000000E+00  0.00000000E+00  0.00000000E+00
                       1.42857143E-01  0.00000000E+00  0.00000000E+00
                       2.85714286E-01  0.00000000E+00  0.00000000E+00
                       4.28571429E-01  0.00000000E+00  0.00000000E+00
                       1.42857143E-01  1.42857143E-01  0.00000000E+00
                       2.85714286E-01  1.42857143E-01  0.00000000E+00
                       4.28571429E-01  1.42857143E-01  0.00000000E+00
                      -4.28571429E-01  1.42857143E-01  0.00000000E+00
                      -2.85714286E-01  1.42857143E-01  0.00000000E+00
                      -1.42857143E-01  1.42857143E-01  0.00000000E+00
                       2.85714286E-01  2.85714286E-01  0.00000000E+00
                       4.28571429E-01  2.85714286E-01  0.00000000E+00
                      -4.28571429E-01  2.85714286E-01  0.00000000E+00
                      -2.85714286E-01  2.85714286E-01  0.00000000E+00
                       4.28571429E-01  4.28571429E-01  0.00000000E+00
                      -4.28571429E-01  4.28571429E-01  0.00000000E+00
                       4.28571429E-01  2.85714286E-01  1.42857143E-01
                      -4.28571429E-01  2.85714286E-01  1.42857143E-01
                      -4.28571429E-01  4.28571429E-01  1.42857143E-01
                      -2.85714286E-01  4.28571429E-01  1.42857143E-01
              kpt81    0.00000000E+00  0.00000000E+00  0.00000000E+00
                       1.25000000E-01  0.00000000E+00  0.00000000E+00
                       2.50000000E-01  0.00000000E+00  0.00000000E+00
                       3.75000000E-01  0.00000000E+00  0.00000000E+00
                       5.00000000E-01  0.00000000E+00  0.00000000E+00
                       1.25000000E-01  1.25000000E-01  0.00000000E+00
                       2.50000000E-01  1.25000000E-01  0.00000000E+00
                       3.75000000E-01  1.25000000E-01  0.00000000E+00
                       5.00000000E-01  1.25000000E-01  0.00000000E+00
                      -3.75000000E-01  1.25000000E-01  0.00000000E+00
                      -2.50000000E-01  1.25000000E-01  0.00000000E+00
                      -1.25000000E-01  1.25000000E-01  0.00000000E+00
                       2.50000000E-01  2.50000000E-01  0.00000000E+00
                       3.75000000E-01  2.50000000E-01  0.00000000E+00
                       5.00000000E-01  2.50000000E-01  0.00000000E+00
                      -3.75000000E-01  2.50000000E-01  0.00000000E+00
                      -2.50000000E-01  2.50000000E-01  0.00000000E+00
                       3.75000000E-01  3.75000000E-01  0.00000000E+00
                       5.00000000E-01  3.75000000E-01  0.00000000E+00
                      -3.75000000E-01  3.75000000E-01  0.00000000E+00
                       5.00000000E-01  5.00000000E-01  0.00000000E+00
                       3.75000000E-01  2.50000000E-01  1.25000000E-01
                       5.00000000E-01  2.50000000E-01  1.25000000E-01
                      -3.75000000E-01  2.50000000E-01  1.25000000E-01
                       5.00000000E-01  3.75000000E-01  1.25000000E-01
                      -3.75000000E-01  3.75000000E-01  1.25000000E-01
                      -2.50000000E-01  3.75000000E-01  1.25000000E-01
                      -3.75000000E-01  5.00000000E-01  1.25000000E-01
                      -2.50000000E-01  5.00000000E-01  2.50000000E-01
              kpt91    0.00000000E+00  0.00000000E+00  0.00000000E+00
                       1.11111111E-01  0.00000000E+00  0.00000000E+00
                       2.22222222E-01  0.00000000E+00  0.00000000E+00
                       3.33333333E-01  0.00000000E+00  0.00000000E+00
                       4.44444444E-01  0.00000000E+00  0.00000000E+00
                       1.11111111E-01  1.11111111E-01  0.00000000E+00
                       2.22222222E-01  1.11111111E-01  0.00000000E+00
                       3.33333333E-01  1.11111111E-01  0.00000000E+00
                       4.44444444E-01  1.11111111E-01  0.00000000E+00
                      -4.44444444E-01  1.11111111E-01  0.00000000E+00
                      -3.33333333E-01  1.11111111E-01  0.00000000E+00
                      -2.22222222E-01  1.11111111E-01  0.00000000E+00
                      -1.11111111E-01  1.11111111E-01  0.00000000E+00
                       2.22222222E-01  2.22222222E-01  0.00000000E+00
                       3.33333333E-01  2.22222222E-01  0.00000000E+00
                       4.44444444E-01  2.22222222E-01  0.00000000E+00
                      -4.44444444E-01  2.22222222E-01  0.00000000E+00
                      -3.33333333E-01  2.22222222E-01  0.00000000E+00
                      -2.22222222E-01  2.22222222E-01  0.00000000E+00
                       3.33333333E-01  3.33333333E-01  0.00000000E+00
                       4.44444444E-01  3.33333333E-01  0.00000000E+00
                      -4.44444444E-01  3.33333333E-01  0.00000000E+00
                      -3.33333333E-01  3.33333333E-01  0.00000000E+00
                       4.44444444E-01  4.44444444E-01  0.00000000E+00
                      -4.44444444E-01  4.44444444E-01  0.00000000E+00
                       3.33333333E-01  2.22222222E-01  1.11111111E-01
                       4.44444444E-01  2.22222222E-01  1.11111111E-01
                      -4.44444444E-01  2.22222222E-01  1.11111111E-01
                       4.44444444E-01  3.33333333E-01  1.11111111E-01
                      -4.44444444E-01  3.33333333E-01  1.11111111E-01
                      -3.33333333E-01  3.33333333E-01  1.11111111E-01
                      -2.22222222E-01  3.33333333E-01  1.11111111E-01
                      -4.44444444E-01  4.44444444E-01  1.11111111E-01
                      -3.33333333E-01  4.44444444E-01  1.11111111E-01
                      -3.33333333E-01  4.44444444E-01  2.22222222E-01
              kpt101   0.00000000E+00  0.00000000E+00  0.00000000E+00
                       1.00000000E-01  0.00000000E+00  0.00000000E+00
                       2.00000000E-01  0.00000000E+00  0.00000000E+00
                       3.00000000E-01  0.00000000E+00  0.00000000E+00
                       4.00000000E-01  0.00000000E+00  0.00000000E+00
                       5.00000000E-01  0.00000000E+00  0.00000000E+00
                       1.00000000E-01  1.00000000E-01  0.00000000E+00
                       2.00000000E-01  1.00000000E-01  0.00000000E+00
                       3.00000000E-01  1.00000000E-01  0.00000000E+00
                       4.00000000E-01  1.00000000E-01  0.00000000E+00
                       5.00000000E-01  1.00000000E-01  0.00000000E+00
                      -4.00000000E-01  1.00000000E-01  0.00000000E+00
                      -3.00000000E-01  1.00000000E-01  0.00000000E+00
                      -2.00000000E-01  1.00000000E-01  0.00000000E+00
                      -1.00000000E-01  1.00000000E-01  0.00000000E+00
                       2.00000000E-01  2.00000000E-01  0.00000000E+00
                       3.00000000E-01  2.00000000E-01  0.00000000E+00
                       4.00000000E-01  2.00000000E-01  0.00000000E+00
                       5.00000000E-01  2.00000000E-01  0.00000000E+00
                      -4.00000000E-01  2.00000000E-01  0.00000000E+00
                      -3.00000000E-01  2.00000000E-01  0.00000000E+00
                      -2.00000000E-01  2.00000000E-01  0.00000000E+00
                       3.00000000E-01  3.00000000E-01  0.00000000E+00
                       4.00000000E-01  3.00000000E-01  0.00000000E+00
                       5.00000000E-01  3.00000000E-01  0.00000000E+00
                      -4.00000000E-01  3.00000000E-01  0.00000000E+00
                      -3.00000000E-01  3.00000000E-01  0.00000000E+00
                       4.00000000E-01  4.00000000E-01  0.00000000E+00
                       5.00000000E-01  4.00000000E-01  0.00000000E+00
                      -4.00000000E-01  4.00000000E-01  0.00000000E+00
                       5.00000000E-01  5.00000000E-01  0.00000000E+00
                       3.00000000E-01  2.00000000E-01  1.00000000E-01
                       4.00000000E-01  2.00000000E-01  1.00000000E-01
                       5.00000000E-01  2.00000000E-01  1.00000000E-01
                      -4.00000000E-01  2.00000000E-01  1.00000000E-01
                       4.00000000E-01  3.00000000E-01  1.00000000E-01
                       5.00000000E-01  3.00000000E-01  1.00000000E-01
                      -4.00000000E-01  3.00000000E-01  1.00000000E-01
                      -3.00000000E-01  3.00000000E-01  1.00000000E-01
                      -2.00000000E-01  3.00000000E-01  1.00000000E-01
                       5.00000000E-01  4.00000000E-01  1.00000000E-01
                      -4.00000000E-01  4.00000000E-01  1.00000000E-01
                      -3.00000000E-01  4.00000000E-01  1.00000000E-01
                      -4.00000000E-01  5.00000000E-01  1.00000000E-01
                      -4.00000000E-01  4.00000000E-01  2.00000000E-01
                      -3.00000000E-01  4.00000000E-01  2.00000000E-01
                      -3.00000000E-01  5.00000000E-01  2.00000000E-01
              kpt111   0.00000000E+00  0.00000000E+00  0.00000000E+00
                       9.09090909E-02  0.00000000E+00  0.00000000E+00
                       1.81818182E-01  0.00000000E+00  0.00000000E+00
                       2.72727273E-01  0.00000000E+00  0.00000000E+00
                       3.63636364E-01  0.00000000E+00  0.00000000E+00
                       4.54545455E-01  0.00000000E+00  0.00000000E+00
                       9.09090909E-02  9.09090909E-02  0.00000000E+00
                       1.81818182E-01  9.09090909E-02  0.00000000E+00
                       2.72727273E-01  9.09090909E-02  0.00000000E+00
                       3.63636364E-01  9.09090909E-02  0.00000000E+00
                       4.54545455E-01  9.09090909E-02  0.00000000E+00
                      -4.54545455E-01  9.09090909E-02  0.00000000E+00
                      -3.63636364E-01  9.09090909E-02  0.00000000E+00
                      -2.72727273E-01  9.09090909E-02  0.00000000E+00
                      -1.81818182E-01  9.09090909E-02  0.00000000E+00
                      -9.09090909E-02  9.09090909E-02  0.00000000E+00
                       1.81818182E-01  1.81818182E-01  0.00000000E+00
                       2.72727273E-01  1.81818182E-01  0.00000000E+00
                       3.63636364E-01  1.81818182E-01  0.00000000E+00
                       4.54545455E-01  1.81818182E-01  0.00000000E+00
                      -4.54545455E-01  1.81818182E-01  0.00000000E+00
                      -3.63636364E-01  1.81818182E-01  0.00000000E+00
                      -2.72727273E-01  1.81818182E-01  0.00000000E+00
                      -1.81818182E-01  1.81818182E-01  0.00000000E+00
                       2.72727273E-01  2.72727273E-01  0.00000000E+00
                       3.63636364E-01  2.72727273E-01  0.00000000E+00
                       4.54545455E-01  2.72727273E-01  0.00000000E+00
                      -4.54545455E-01  2.72727273E-01  0.00000000E+00
                      -3.63636364E-01  2.72727273E-01  0.00000000E+00
                      -2.72727273E-01  2.72727273E-01  0.00000000E+00
                       3.63636364E-01  3.63636364E-01  0.00000000E+00
                       4.54545455E-01  3.63636364E-01  0.00000000E+00
                      -4.54545455E-01  3.63636364E-01  0.00000000E+00
                      -3.63636364E-01  3.63636364E-01  0.00000000E+00
                       4.54545455E-01  4.54545455E-01  0.00000000E+00
                      -4.54545455E-01  4.54545455E-01  0.00000000E+00
                       2.72727273E-01  1.81818182E-01  9.09090909E-02
                       3.63636364E-01  1.81818182E-01  9.09090909E-02
                       4.54545455E-01  1.81818182E-01  9.09090909E-02
                      -4.54545455E-01  1.81818182E-01  9.09090909E-02
                       3.63636364E-01  2.72727273E-01  9.09090909E-02
                       4.54545455E-01  2.72727273E-01  9.09090909E-02
                      -4.54545455E-01  2.72727273E-01  9.09090909E-02
                      -3.63636364E-01  2.72727273E-01  9.09090909E-02
                      -2.72727273E-01  2.72727273E-01  9.09090909E-02
                      -1.81818182E-01  2.72727273E-01  9.09090909E-02
                       4.54545455E-01  3.63636364E-01  9.09090909E-02
                      -4.54545455E-01  3.63636364E-01  9.09090909E-02
                      -3.63636364E-01  3.63636364E-01  9.09090909E-02
                      -2.72727273E-01  3.63636364E-01  9.09090909E-02
              kpt121   0.00000000E+00  0.00000000E+00  0.00000000E+00
                       8.33333333E-02  0.00000000E+00  0.00000000E+00
                       1.66666667E-01  0.00000000E+00  0.00000000E+00
                       2.50000000E-01  0.00000000E+00  0.00000000E+00
                       3.33333333E-01  0.00000000E+00  0.00000000E+00
                       4.16666667E-01  0.00000000E+00  0.00000000E+00
                       5.00000000E-01  0.00000000E+00  0.00000000E+00
                       8.33333333E-02  8.33333333E-02  0.00000000E+00
                       1.66666667E-01  8.33333333E-02  0.00000000E+00
                       2.50000000E-01  8.33333333E-02  0.00000000E+00
                       3.33333333E-01  8.33333333E-02  0.00000000E+00
                       4.16666667E-01  8.33333333E-02  0.00000000E+00
                       5.00000000E-01  8.33333333E-02  0.00000000E+00
                      -4.16666667E-01  8.33333333E-02  0.00000000E+00
                      -3.33333333E-01  8.33333333E-02  0.00000000E+00
                      -2.50000000E-01  8.33333333E-02  0.00000000E+00
                      -1.66666667E-01  8.33333333E-02  0.00000000E+00
                      -8.33333333E-02  8.33333333E-02  0.00000000E+00
                       1.66666667E-01  1.66666667E-01  0.00000000E+00
                       2.50000000E-01  1.66666667E-01  0.00000000E+00
                       3.33333333E-01  1.66666667E-01  0.00000000E+00
                       4.16666667E-01  1.66666667E-01  0.00000000E+00
                       5.00000000E-01  1.66666667E-01  0.00000000E+00
                      -4.16666667E-01  1.66666667E-01  0.00000000E+00
                      -3.33333333E-01  1.66666667E-01  0.00000000E+00
                      -2.50000000E-01  1.66666667E-01  0.00000000E+00
                      -1.66666667E-01  1.66666667E-01  0.00000000E+00
                       2.50000000E-01  2.50000000E-01  0.00000000E+00
                       3.33333333E-01  2.50000000E-01  0.00000000E+00
                       4.16666667E-01  2.50000000E-01  0.00000000E+00
                       5.00000000E-01  2.50000000E-01  0.00000000E+00
                      -4.16666667E-01  2.50000000E-01  0.00000000E+00
                      -3.33333333E-01  2.50000000E-01  0.00000000E+00
                      -2.50000000E-01  2.50000000E-01  0.00000000E+00
                       3.33333333E-01  3.33333333E-01  0.00000000E+00
                       4.16666667E-01  3.33333333E-01  0.00000000E+00
                       5.00000000E-01  3.33333333E-01  0.00000000E+00
                      -4.16666667E-01  3.33333333E-01  0.00000000E+00
                      -3.33333333E-01  3.33333333E-01  0.00000000E+00
                       4.16666667E-01  4.16666667E-01  0.00000000E+00
                       5.00000000E-01  4.16666667E-01  0.00000000E+00
                      -4.16666667E-01  4.16666667E-01  0.00000000E+00
                       5.00000000E-01  5.00000000E-01  0.00000000E+00
                       2.50000000E-01  1.66666667E-01  8.33333333E-02
                       3.33333333E-01  1.66666667E-01  8.33333333E-02
                       4.16666667E-01  1.66666667E-01  8.33333333E-02
                       5.00000000E-01  1.66666667E-01  8.33333333E-02
                      -4.16666667E-01  1.66666667E-01  8.33333333E-02
                       3.33333333E-01  2.50000000E-01  8.33333333E-02
                       4.16666667E-01  2.50000000E-01  8.33333333E-02
              kpt131   0.00000000E+00  0.00000000E+00  0.00000000E+00
                       7.69230769E-02  0.00000000E+00  0.00000000E+00
                       1.53846154E-01  0.00000000E+00  0.00000000E+00
                       2.30769231E-01  0.00000000E+00  0.00000000E+00
                       3.07692308E-01  0.00000000E+00  0.00000000E+00
                       3.84615385E-01  0.00000000E+00  0.00000000E+00
                       4.61538462E-01  0.00000000E+00  0.00000000E+00
                       7.69230769E-02  7.69230769E-02  0.00000000E+00
                       1.53846154E-01  7.69230769E-02  0.00000000E+00
                       2.30769231E-01  7.69230769E-02  0.00000000E+00
                       3.07692308E-01  7.69230769E-02  0.00000000E+00
                       3.84615385E-01  7.69230769E-02  0.00000000E+00
                       4.61538462E-01  7.69230769E-02  0.00000000E+00
                      -4.61538462E-01  7.69230769E-02  0.00000000E+00
                      -3.84615385E-01  7.69230769E-02  0.00000000E+00
                      -3.07692308E-01  7.69230769E-02  0.00000000E+00
                      -2.30769231E-01  7.69230769E-02  0.00000000E+00
                      -1.53846154E-01  7.69230769E-02  0.00000000E+00
                      -7.69230769E-02  7.69230769E-02  0.00000000E+00
                       1.53846154E-01  1.53846154E-01  0.00000000E+00
                       2.30769231E-01  1.53846154E-01  0.00000000E+00
                       3.07692308E-01  1.53846154E-01  0.00000000E+00
                       3.84615385E-01  1.53846154E-01  0.00000000E+00
                       4.61538462E-01  1.53846154E-01  0.00000000E+00
                      -4.61538462E-01  1.53846154E-01  0.00000000E+00
                      -3.84615385E-01  1.53846154E-01  0.00000000E+00
                      -3.07692308E-01  1.53846154E-01  0.00000000E+00
                      -2.30769231E-01  1.53846154E-01  0.00000000E+00
                      -1.53846154E-01  1.53846154E-01  0.00000000E+00
                       2.30769231E-01  2.30769231E-01  0.00000000E+00
                       3.07692308E-01  2.30769231E-01  0.00000000E+00
                       3.84615385E-01  2.30769231E-01  0.00000000E+00
                       4.61538462E-01  2.30769231E-01  0.00000000E+00
                      -4.61538462E-01  2.30769231E-01  0.00000000E+00
                      -3.84615385E-01  2.30769231E-01  0.00000000E+00
                      -3.07692308E-01  2.30769231E-01  0.00000000E+00
                      -2.30769231E-01  2.30769231E-01  0.00000000E+00
                       3.07692308E-01  3.07692308E-01  0.00000000E+00
                       3.84615385E-01  3.07692308E-01  0.00000000E+00
                       4.61538462E-01  3.07692308E-01  0.00000000E+00
                      -4.61538462E-01  3.07692308E-01  0.00000000E+00
                      -3.84615385E-01  3.07692308E-01  0.00000000E+00
                      -3.07692308E-01  3.07692308E-01  0.00000000E+00
                       3.84615385E-01  3.84615385E-01  0.00000000E+00
                       4.61538462E-01  3.84615385E-01  0.00000000E+00
                      -4.61538462E-01  3.84615385E-01  0.00000000E+00
                      -3.84615385E-01  3.84615385E-01  0.00000000E+00
                       4.61538462E-01  4.61538462E-01  0.00000000E+00
                      -4.61538462E-01  4.61538462E-01  0.00000000E+00
                       2.30769231E-01  1.53846154E-01  7.69230769E-02
              kpt141   0.00000000E+00  0.00000000E+00  0.00000000E+00
                       7.14285714E-02  0.00000000E+00  0.00000000E+00
                       1.42857143E-01  0.00000000E+00  0.00000000E+00
                       2.14285714E-01  0.00000000E+00  0.00000000E+00
                       2.85714286E-01  0.00000000E+00  0.00000000E+00
                       3.57142857E-01  0.00000000E+00  0.00000000E+00
                       4.28571429E-01  0.00000000E+00  0.00000000E+00
                       5.00000000E-01  0.00000000E+00  0.00000000E+00
                       7.14285714E-02  7.14285714E-02  0.00000000E+00
                       1.42857143E-01  7.14285714E-02  0.00000000E+00
                       2.14285714E-01  7.14285714E-02  0.00000000E+00
                       2.85714286E-01  7.14285714E-02  0.00000000E+00
                       3.57142857E-01  7.14285714E-02  0.00000000E+00
                       4.28571429E-01  7.14285714E-02  0.00000000E+00
                       5.00000000E-01  7.14285714E-02  0.00000000E+00
                      -4.28571429E-01  7.14285714E-02  0.00000000E+00
                      -3.57142857E-01  7.14285714E-02  0.00000000E+00
                      -2.85714286E-01  7.14285714E-02  0.00000000E+00
                      -2.14285714E-01  7.14285714E-02  0.00000000E+00
                      -1.42857143E-01  7.14285714E-02  0.00000000E+00
                      -7.14285714E-02  7.14285714E-02  0.00000000E+00
                       1.42857143E-01  1.42857143E-01  0.00000000E+00
                       2.14285714E-01  1.42857143E-01  0.00000000E+00
                       2.85714286E-01  1.42857143E-01  0.00000000E+00
                       3.57142857E-01  1.42857143E-01  0.00000000E+00
                       4.28571429E-01  1.42857143E-01  0.00000000E+00
                       5.00000000E-01  1.42857143E-01  0.00000000E+00
                      -4.28571429E-01  1.42857143E-01  0.00000000E+00
                      -3.57142857E-01  1.42857143E-01  0.00000000E+00
                      -2.85714286E-01  1.42857143E-01  0.00000000E+00
                      -2.14285714E-01  1.42857143E-01  0.00000000E+00
                      -1.42857143E-01  1.42857143E-01  0.00000000E+00
                       2.14285714E-01  2.14285714E-01  0.00000000E+00
                       2.85714286E-01  2.14285714E-01  0.00000000E+00
                       3.57142857E-01  2.14285714E-01  0.00000000E+00
                       4.28571429E-01  2.14285714E-01  0.00000000E+00
                       5.00000000E-01  2.14285714E-01  0.00000000E+00
                      -4.28571429E-01  2.14285714E-01  0.00000000E+00
                      -3.57142857E-01  2.14285714E-01  0.00000000E+00
                      -2.85714286E-01  2.14285714E-01  0.00000000E+00
                      -2.14285714E-01  2.14285714E-01  0.00000000E+00
                       2.85714286E-01  2.85714286E-01  0.00000000E+00
                       3.57142857E-01  2.85714286E-01  0.00000000E+00
                       4.28571429E-01  2.85714286E-01  0.00000000E+00
                       5.00000000E-01  2.85714286E-01  0.00000000E+00
                      -4.28571429E-01  2.85714286E-01  0.00000000E+00
                      -3.57142857E-01  2.85714286E-01  0.00000000E+00
                      -2.85714286E-01  2.85714286E-01  0.00000000E+00
                       3.57142857E-01  3.57142857E-01  0.00000000E+00
                       4.28571429E-01  3.57142857E-01  0.00000000E+00
              kpt151   0.00000000E+00  0.00000000E+00  0.00000000E+00
                       6.66666667E-02  0.00000000E+00  0.00000000E+00
                       1.33333333E-01  0.00000000E+00  0.00000000E+00
                       2.00000000E-01  0.00000000E+00  0.00000000E+00
                       2.66666667E-01  0.00000000E+00  0.00000000E+00
                       3.33333333E-01  0.00000000E+00  0.00000000E+00
                       4.00000000E-01  0.00000000E+00  0.00000000E+00
                       4.66666667E-01  0.00000000E+00  0.00000000E+00
                       6.66666667E-02  6.66666667E-02  0.00000000E+00
                       1.33333333E-01  6.66666667E-02  0.00000000E+00
                       2.00000000E-01  6.66666667E-02  0.00000000E+00
                       2.66666667E-01  6.66666667E-02  0.00000000E+00
                       3.33333333E-01  6.66666667E-02  0.00000000E+00
                       4.00000000E-01  6.66666667E-02  0.00000000E+00
                       4.66666667E-01  6.66666667E-02  0.00000000E+00
                      -4.66666667E-01  6.66666667E-02  0.00000000E+00
                      -4.00000000E-01  6.66666667E-02  0.00000000E+00
                      -3.33333333E-01  6.66666667E-02  0.00000000E+00
                      -2.66666667E-01  6.66666667E-02  0.00000000E+00
                      -2.00000000E-01  6.66666667E-02  0.00000000E+00
                      -1.33333333E-01  6.66666667E-02  0.00000000E+00
                      -6.66666667E-02  6.66666667E-02  0.00000000E+00
                       1.33333333E-01  1.33333333E-01  0.00000000E+00
                       2.00000000E-01  1.33333333E-01  0.00000000E+00
                       2.66666667E-01  1.33333333E-01  0.00000000E+00
                       3.33333333E-01  1.33333333E-01  0.00000000E+00
                       4.00000000E-01  1.33333333E-01  0.00000000E+00
                       4.66666667E-01  1.33333333E-01  0.00000000E+00
                      -4.66666667E-01  1.33333333E-01  0.00000000E+00
                      -4.00000000E-01  1.33333333E-01  0.00000000E+00
                      -3.33333333E-01  1.33333333E-01  0.00000000E+00
                      -2.66666667E-01  1.33333333E-01  0.00000000E+00
                      -2.00000000E-01  1.33333333E-01  0.00000000E+00
                      -1.33333333E-01  1.33333333E-01  0.00000000E+00
                       2.00000000E-01  2.00000000E-01  0.00000000E+00
                       2.66666667E-01  2.00000000E-01  0.00000000E+00
                       3.33333333E-01  2.00000000E-01  0.00000000E+00
                       4.00000000E-01  2.00000000E-01  0.00000000E+00
                       4.66666667E-01  2.00000000E-01  0.00000000E+00
                      -4.66666667E-01  2.00000000E-01  0.00000000E+00
                      -4.00000000E-01  2.00000000E-01  0.00000000E+00
                      -3.33333333E-01  2.00000000E-01  0.00000000E+00
                      -2.66666667E-01  2.00000000E-01  0.00000000E+00
                      -2.00000000E-01  2.00000000E-01  0.00000000E+00
                       2.66666667E-01  2.66666667E-01  0.00000000E+00
                       3.33333333E-01  2.66666667E-01  0.00000000E+00
                       4.00000000E-01  2.66666667E-01  0.00000000E+00
                       4.66666667E-01  2.66666667E-01  0.00000000E+00
                      -4.66666667E-01  2.66666667E-01  0.00000000E+00
                      -4.00000000E-01  2.66666667E-01  0.00000000E+00
                       outvar_i_n : Printing only first  50 k-points.
         kptrlatt11      1    0    0      0    1    0      0    0    1
         kptrlatt21      2    0    0      0    2    0      0    0    2
         kptrlatt31      3    0    0      0    3    0      0    0    3
         kptrlatt41      4    0    0      0    4    0      0    0    4
         kptrlatt51      5    0    0      0    5    0      0    0    5
         kptrlatt61      6    0    0      0    6    0      0    0    6
         kptrlatt71      7    0    0      0    7    0      0    0    7
         kptrlatt81      8    0    0      0    8    0      0    0    8
         kptrlatt91      9    0    0      0    9    0      0    0    9
         kptrlatt101    10    0    0      0   10    0      0    0   10
         kptrlatt111    11    0    0      0   11    0      0    0   11
         kptrlatt121    12    0    0      0   12    0      0    0   12
         kptrlatt131    13    0    0      0   13    0      0    0   13
         kptrlatt141    14    0    0      0   14    0      0    0   14
         kptrlatt151    15    0    0      0   15    0      0    0   15
          kptrlen11    7.22450998E+00
          kptrlen21    1.44490200E+01
          kptrlen31    2.16735300E+01
          kptrlen41    2.88980399E+01
          kptrlen51    3.61225499E+01
          kptrlen61    4.33470599E+01
          kptrlen71    5.05715699E+01
          kptrlen81    5.77960799E+01
          kptrlen91    6.50205899E+01
          kptrlen101   7.22450998E+01
          kptrlen111   7.94696098E+01
          kptrlen121   8.66941198E+01
          kptrlen131   9.39186298E+01
          kptrlen141   1.01143140E+02
          kptrlen151   1.08367650E+02
P           mkmem11         1
P           mkmem21         3
P           mkmem31         4
P           mkmem41         8
P           mkmem51        10
P           mkmem61        16
P           mkmem71        20
P           mkmem81        29
P           mkmem91        35
P           mkmem101       47
P           mkmem111       56
P           mkmem121       72
P           mkmem131       84
P           mkmem141      104
P           mkmem151      120
            natom           2
            nband11        15
            nband21        15
            nband31        15
            nband41        15
            nband51        15
            nband61        15
            nband71        15
            nband81        15
            nband91        15
            nband101       15
            nband111       15
            nband121       15
            nband131       15
            nband141       15
            nband151       15
           ndtset          15
           ndivsm          20
            ngfft          45      45      45
             nkpt11         1
             nkpt21         3
             nkpt31         4
             nkpt41         8
             nkpt51        10
             nkpt61        16
             nkpt71        20
             nkpt81        29
             nkpt91        35
             nkpt101       47
             nkpt111       56
             nkpt121       72
             nkpt131       84
             nkpt141      104
             nkpt151      120
            nstep          20
             nsym          24
           ntypat           2
              occ11    2.000000  2.000000  2.000000  2.000000  2.000000  2.000000
                       2.000000  2.000000  2.000000  2.000000  2.000000  2.000000
                       2.000000  2.000000  0.000000
              occ21    2.000000  2.000000  2.000000  2.000000  2.000000  2.000000
                       2.000000  2.000000  2.000000  2.000000  2.000000  2.000000
                       2.000000  2.000000  0.000000
              occ31    2.000000  2.000000  2.000000  2.000000  2.000000  2.000000
                       2.000000  2.000000  2.000000  2.000000  2.000000  2.000000
                       2.000000  2.000000  0.000000
              occ41    2.000000  2.000000  2.000000  2.000000  2.000000  2.000000
                       2.000000  2.000000  2.000000  2.000000  2.000000  2.000000
                       2.000000  2.000000  0.000000
              occ51    2.000000  2.000000  2.000000  2.000000  2.000000  2.000000
                       2.000000  2.000000  2.000000  2.000000  2.000000  2.000000
                       2.000000  2.000000  0.000000
              occ61    2.000000  2.000000  2.000000  2.000000  2.000000  2.000000
                       2.000000  2.000000  2.000000  2.000000  2.000000  2.000000
                       2.000000  2.000000  0.000000
              occ71    2.000000  2.000000  2.000000  2.000000  2.000000  2.000000
                       2.000000  2.000000  2.000000  2.000000  2.000000  2.000000
                       2.000000  2.000000  0.000000
              occ81    2.000000  2.000000  2.000000  2.000000  2.000000  2.000000
                       2.000000  2.000000  2.000000  2.000000  2.000000  2.000000
                       2.000000  2.000000  0.000000
              occ91    2.000000  2.000000  2.000000  2.000000  2.000000  2.000000
                       2.000000  2.000000  2.000000  2.000000  2.000000  2.000000
                       2.000000  2.000000  0.000000
              occ101   2.000000  2.000000  2.000000  2.000000  2.000000  2.000000
                       2.000000  2.000000  2.000000  2.000000  2.000000  2.000000
                       2.000000  2.000000  0.000000
              occ111   2.000000  2.000000  2.000000  2.000000  2.000000  2.000000
                       2.000000  2.000000  2.000000  2.000000  2.000000  2.000000
                       2.000000  2.000000  0.000000
              occ121   2.000000  2.000000  2.000000  2.000000  2.000000  2.000000
                       2.000000  2.000000  2.000000  2.000000  2.000000  2.000000
                       2.000000  2.000000  0.000000
              occ131   2.000000  2.000000  2.000000  2.000000  2.000000  2.000000
                       2.000000  2.000000  2.000000  2.000000  2.000000  2.000000
                       2.000000  2.000000  0.000000
              occ141   2.000000  2.000000  2.000000  2.000000  2.000000  2.000000
                       2.000000  2.000000  2.000000  2.000000  2.000000  2.000000
                       2.000000  2.000000  0.000000
              occ151   2.000000  2.000000  2.000000  2.000000  2.000000  2.000000
                       2.000000  2.000000  2.000000  2.000000  2.000000  2.000000
                       2.000000  2.000000  0.000000
            rprim      0.0000000000E+00  5.0000000000E-01  5.0000000000E-01
                       5.0000000000E-01  0.0000000000E+00  5.0000000000E-01
                       5.0000000000E-01  5.0000000000E-01  0.0000000000E+00
          spgroup         216
           symrel      1  0  0   0  1  0   0  0  1       0 -1  1   0 -1  0   1 -1  0
                      -1  0  0  -1  0  1  -1  1  0       0  1 -1   1  0 -1   0  0 -1
                      -1  0  0  -1  1  0  -1  0  1       0 -1  1   1 -1  0   0 -1  0
                       1  0  0   0  0  1   0  1  0       0  1 -1   0  0 -1   1  0 -1
                      -1  0  1  -1  1  0  -1  0  0       0 -1  0   1 -1  0   0 -1  1
                       1  0 -1   0  0 -1   0  1 -1       0  1  0   0  0  1   1  0  0
                       1  0 -1   0  1 -1   0  0 -1       0 -1  0   0 -1  1   1 -1  0
                      -1  0  1  -1  0  0  -1  1  0       0  1  0   1  0  0   0  0  1
                       0  0 -1   0  1 -1   1  0 -1       1 -1  0   0 -1  1   0 -1  0
                       0  0  1   1  0  0   0  1  0      -1  1  0  -1  0  0  -1  0  1
                       0  0  1   0  1  0   1  0  0       1 -1  0   0 -1  0   0 -1  1
                       0  0 -1   1  0 -1   0  1 -1      -1  1  0  -1  0  1  -1  0  0
           toldfe      1.00000000E-06 Hartree
            typat      1  2
              wtk11      1.00000
              wtk21      0.12500    0.50000    0.37500
              wtk31      0.03704    0.29630    0.22222    0.44444
              wtk41      0.01563    0.12500    0.06250    0.09375    0.37500    0.18750
                         0.04688    0.09375
              wtk51      0.00800    0.06400    0.06400    0.04800    0.19200    0.19200
                         0.09600    0.04800    0.09600    0.19200
              wtk61      0.00463    0.03704    0.03704    0.01852    0.02778    0.11111
                         0.11111    0.11111    0.05556    0.02778    0.11111    0.05556
                         0.01389    0.11111    0.11111    0.05556
              wtk71      0.00292    0.02332    0.02332    0.02332    0.01749    0.06997
                         0.06997    0.06997    0.06997    0.03499    0.01749    0.06997
                         0.06997    0.03499    0.01749    0.03499    0.06997    0.13994
                         0.06997    0.06997
              wtk81      0.00195    0.01563    0.01563    0.01563    0.00781    0.01172
                         0.04688    0.04688    0.04688    0.04688    0.04688    0.02344
                         0.01172    0.04688    0.04688    0.04688    0.02344    0.01172
                         0.04688    0.02344    0.00586    0.04688    0.09375    0.04688
                         0.04688    0.09375    0.04688    0.02344    0.01172
              wtk91      0.00137    0.01097    0.01097    0.01097    0.01097    0.00823
                         0.03292    0.03292    0.03292    0.03292    0.03292    0.03292
                         0.01646    0.00823    0.03292    0.03292    0.03292    0.03292
                         0.01646    0.00823    0.03292    0.03292    0.01646    0.00823
                         0.01646    0.03292    0.06584    0.06584    0.03292    0.06584
                         0.06584    0.03292    0.03292    0.03292    0.03292
              wtk101     0.00100    0.00800    0.00800    0.00800    0.00800    0.00400
                         0.00600    0.02400    0.02400    0.02400    0.02400    0.02400
                         0.02400    0.02400    0.01200    0.00600    0.02400    0.02400
                         0.02400    0.02400    0.02400    0.01200    0.00600    0.02400
                         0.02400    0.02400    0.01200    0.00600    0.02400    0.01200
                         0.00300    0.02400    0.04800    0.04800    0.02400    0.02400
                         0.04800    0.04800    0.04800    0.02400    0.02400    0.04800
                         0.02400    0.01200    0.02400    0.02400    0.01200
              wtk111     0.00075    0.00601    0.00601    0.00601    0.00601    0.00601
                         0.00451    0.01803    0.01803    0.01803    0.01803    0.01803
                         0.01803    0.01803    0.01803    0.00902    0.00451    0.01803
                         0.01803    0.01803    0.01803    0.01803    0.01803    0.00902
                         0.00451    0.01803    0.01803    0.01803    0.01803    0.00902
                         0.00451    0.01803    0.01803    0.00902    0.00451    0.00902
                         0.01803    0.03606    0.03606    0.03606    0.01803    0.03606
                         0.03606    0.03606    0.03606    0.01803    0.01803    0.03606
                         0.03606    0.01803
              wtk121     0.00058    0.00463    0.00463    0.00463    0.00463    0.00463
                         0.00231    0.00347    0.01389    0.01389    0.01389    0.01389
                         0.01389    0.01389    0.01389    0.01389    0.01389    0.00694
                         0.00347    0.01389    0.01389    0.01389    0.01389    0.01389
                         0.01389    0.01389    0.00694    0.00347    0.01389    0.01389
                         0.01389    0.01389    0.01389    0.00694    0.00347    0.01389
                         0.01389    0.01389    0.00694    0.00347    0.01389    0.00694
                         0.00174    0.01389    0.02778    0.02778    0.02778    0.01389
                         0.01389    0.02778
              wtk131     0.00046    0.00364    0.00364    0.00364    0.00364    0.00364
                         0.00364    0.00273    0.01092    0.01092    0.01092    0.01092
                         0.01092    0.01092    0.01092    0.01092    0.01092    0.01092
                         0.00546    0.00273    0.01092    0.01092    0.01092    0.01092
                         0.01092    0.01092    0.01092    0.01092    0.00546    0.00273
                         0.01092    0.01092    0.01092    0.01092    0.01092    0.01092
                         0.00546    0.00273    0.01092    0.01092    0.01092    0.01092
                         0.00546    0.00273    0.01092    0.01092    0.00546    0.00273
                         0.00546    0.01092
              wtk141     0.00036    0.00292    0.00292    0.00292    0.00292    0.00292
                         0.00292    0.00146    0.00219    0.00875    0.00875    0.00875
                         0.00875    0.00875    0.00875    0.00875    0.00875    0.00875
                         0.00875    0.00875    0.00437    0.00219    0.00875    0.00875
                         0.00875    0.00875    0.00875    0.00875    0.00875    0.00875
                         0.00875    0.00437    0.00219    0.00875    0.00875    0.00875
                         0.00875    0.00875    0.00875    0.00875    0.00437    0.00219
                         0.00875    0.00875    0.00875    0.00875    0.00875    0.00437
                         0.00219    0.00875
              wtk151     0.00030    0.00237    0.00237    0.00237    0.00237    0.00237
                         0.00237    0.00237    0.00178    0.00711    0.00711    0.00711
                         0.00711    0.00711    0.00711    0.00711    0.00711    0.00711
                         0.00711    0.00711    0.00711    0.00356    0.00178    0.00711
                         0.00711    0.00711    0.00711    0.00711    0.00711    0.00711
                         0.00711    0.00711    0.00711    0.00356    0.00178    0.00711
                         0.00711    0.00711    0.00711    0.00711    0.00711    0.00711
                         0.00711    0.00356    0.00178    0.00711    0.00711    0.00711
                         0.00711    0.00711
                       outvars : Printing only first  50 k-points.
           xangst      0.0000000000E+00  0.0000000000E+00  0.0000000000E+00
                       1.3516508850E+00  1.3516508850E+00  1.3516508850E+00
            xcart      0.0000000000E+00  0.0000000000E+00  0.0000000000E+00
                       2.5542500000E+00  2.5542500000E+00  2.5542500000E+00
             xred      0.0000000000E+00  0.0000000000E+00  0.0000000000E+00
                       2.5000000000E-01  2.5000000000E-01  2.5000000000E-01
            znucl       31.00000   33.00000
 
================================================================================
 
 chkinp: Checking input parameters for consistency, jdtset=  11.
 
 chkinp: Checking input parameters for consistency, jdtset=  21.
 
 chkinp: Checking input parameters for consistency, jdtset=  31.
 
 chkinp: Checking input parameters for consistency, jdtset=  41.
 
 chkinp: Checking input parameters for consistency, jdtset=  51.
 
 chkinp: Checking input parameters for consistency, jdtset=  61.
 
 chkinp: Checking input parameters for consistency, jdtset=  71.
 
 chkinp: Checking input parameters for consistency, jdtset=  81.
 
 chkinp: Checking input parameters for consistency, jdtset=  91.
 
 chkinp: Checking input parameters for consistency, jdtset= 101.
 
 chkinp: Checking input parameters for consistency, jdtset= 111.
 
 chkinp: Checking input parameters for consistency, jdtset= 121.
 
 chkinp: Checking input parameters for consistency, jdtset= 131.
 
 chkinp: Checking input parameters for consistency, jdtset= 141.
 
 chkinp: Checking input parameters for consistency, jdtset= 151.
 
================================================================================
== DATASET 11 ==================================================================
-   mpi_nproc: 1, omp_nthreads: 1 (-1 if OMP is not activated)
 

--- !DatasetInfo
iteration_state: {dtset: 11, }
dimensions: {natom: 2, nkpt: 1, mband: 15, nsppol: 1, nspinor: 1, nspden: 1, mpw: 1488, }
cutoff_energies: {ecut:  38.0, pawecutdg:  -1.0, }
electrons: {nelect:   2.80000000E+01, charge:   0.00000000E+00, occopt:   1.00000000E+00, tsmear:   1.00000000E-02, }
meta: {optdriver: 0, ionmov: 0, optcell: 0, iscf: 7, paral_kgb: 0, }
...

 Real(R)+Recip(G) space primitive vectors, cartesian coordinates (Bohr,Bohr^-1):
 R(1)=  0.0000000  5.1085000  5.1085000  G(1)= -0.0978761  0.0978761  0.0978761
 R(2)=  5.1085000  0.0000000  5.1085000  G(2)=  0.0978761 -0.0978761  0.0978761
 R(3)=  5.1085000  5.1085000  0.0000000  G(3)=  0.0978761  0.0978761 -0.0978761
 Unit cell volume ucvol=  2.6663072E+02 bohr^3
 Angles (23,13,12)=  6.00000000E+01  6.00000000E+01  6.00000000E+01 degrees
 
 getcut: wavevector=  0.0000  0.0000  0.0000  ngfft=  45  45  45
         ecut(hartree)=     38.000   => boxcut(ratio)=   2.19476
 
--- Pseudopotential description ------------------------------------------------
- pspini: atom type   1  psp file is Ga.psp8
- pspatm: opening atomic psp file    Ga.psp8
- Ga    ONCVPSP-3.3.0  r_core=   1.66857   1.75011   1.90252
- 31.00000  13.00000    180430                znucl, zion, pspdat
    8 -116133    2    4       600   0.00000   pspcod,pspxc,lmax,lloc,mmax,r2well
    5.99000000000000    5.00000000000000    0.00000000000000   rchrg,fchrg,qchrg
     nproj     2     4     2
     spin-orbit psp, extension_switch     3
        nprojso     4     3
  pspatm : epsatm=   24.51314239
         --- l  ekb(1:nproj) -->
             0    1.158767    7.056324
             1    6.883841    1.296077    0.006208    0.000035
             2   -8.367207   -2.818603
  spin-orbit 1
  spin-orbit 1
  spin-orbit 1
  spin-orbit 1
  spin-orbit 2
  spin-orbit 2
  spin-orbit 2
 pspatm: atomic psp has been read  and splines computed
 
- pspini: atom type   2  psp file is As.psp8
- pspatm: opening atomic psp file    As.psp8
- As    ONCVPSP-3.3.0  r_core=   1.76603   1.70395   1.80867
- 33.00000  15.00000    180430                znucl, zion, pspdat
    8 -116133    2    4       600   0.00000   pspcod,pspxc,lmax,lloc,mmax,r2well
    5.99000000000000    5.00000000000000    0.00000000000000   rchrg,fchrg,qchrg
     nproj     2     4     2
     spin-orbit psp, extension_switch     3
        nprojso     4     3
  pspatm : epsatm=   28.79443881
         --- l  ekb(1:nproj) -->
             0    0.868725    8.270752
             1    4.918619    0.757526    0.005498    0.000037
             2  -10.046656   -4.075565
  spin-orbit 1
  spin-orbit 1
  spin-orbit 1
  spin-orbit 1
  spin-orbit 2
  spin-orbit 2
  spin-orbit 2
 pspatm: atomic psp has been read  and splines computed
 
   1.49261227E+03                                ecore*ucvol(ha*bohr**3)
--------------------------------------------------------------------------------
 
_setup2: Arith. and geom. avg. npw (full set) are    2975.000    2975.000
 
================================================================================

--- !BeginCycle
iteration_state: {dtset: 11, }
solver: {iscf: 7, nstep: 20, nline: 4, wfoptalg: 0, }
tolerances: {toldfe: 1.00E-06, }
...
 
     iter   Etot(hartree)      deltaE(h)  residm     vres2
 ETOT  1  -170.09100811886    -1.701E+02 9.910E-01 2.484E+04
 ETOT  2  -172.32640092712    -2.235E+00 1.164E+00 6.100E+04
 ETOT  3  -180.48414188181    -8.158E+00 2.667E+00 6.301E+03
 ETOT  4  -180.93306805425    -4.489E-01 7.797E-02 4.655E+03
 ETOT  5  -181.23948685186    -3.064E-01 2.218E-03 2.698E+03
 ETOT  6  -181.25841793871    -1.893E-02 1.469E-05 2.530E+03
 ETOT  7  -181.40352261262    -1.451E-01 2.551E-04 1.199E+03
 ETOT  8  -181.46503714158    -6.151E-02 1.568E-04 6.321E+02
 ETOT  9  -181.51770696729    -5.267E-02 2.926E-04 1.527E+02
 ETOT 10  -181.53511377857    -1.741E-02 3.066E-04 3.908E-01
 ETOT 11  -181.53516609565    -5.232E-05 1.887E-06 3.621E-01
 ETOT 12  -181.53519746447    -3.137E-05 2.584E-07 6.078E-02
 ETOT 13  -181.53520200525    -4.541E-06 6.534E-08 1.470E-02
 ETOT 14  -181.53520323725    -1.232E-06 2.314E-08 7.975E-05
 ETOT 15  -181.53520324552    -8.271E-09 2.478E-10 2.734E-05
 ETOT 16  -181.53520324857    -3.046E-09 6.498E-11 8.090E-07
 
 At SCF step   16, etot is converged : 
  for the second time, diff in etot=  3.046E-09 < toldfe=  1.000E-06
 
 Cartesian components of stress tensor (hartree/bohr^3)
  sigma(1 1)= -2.55981578E-03  sigma(3 2)=  0.00000000E+00
  sigma(2 2)= -2.55981578E-03  sigma(3 1)=  0.00000000E+00
  sigma(3 3)= -2.55981578E-03  sigma(2 1)=  0.00000000E+00
 

--- !ResultsGS
iteration_state: {dtset: 11, }
comment   : Summary of ground state results
lattice_vectors:
- [  0.0000000,   5.1085000,   5.1085000, ]
- [  5.1085000,   0.0000000,   5.1085000, ]
- [  5.1085000,   5.1085000,   0.0000000, ]
lattice_lengths: [   7.22451,    7.22451,    7.22451, ]
lattice_angles: [ 60.000,  60.000,  60.000, ] # degrees, (23, 13, 12)
lattice_volume:   2.6663072E+02
convergence: {deltae: -3.046E-09, res2:  8.090E-07, residm:  6.498E-11, diffor: null, }
etotal    :  -1.81535203E+02
entropy   :   0.00000000E+00
fermie    :   2.39778395E-01
cartesian_stress_tensor: # hartree/bohr^3
- [ -2.55981578E-03,   0.00000000E+00,   0.00000000E+00, ]
- [  0.00000000E+00,  -2.55981578E-03,   0.00000000E+00, ]
- [  0.00000000E+00,   0.00000000E+00,  -2.55981578E-03, ]
pressure_GPa:   7.5312E+01
xred      :
- [  0.0000E+00,   0.0000E+00,   0.0000E+00, Ga]
- [  2.5000E-01,   2.5000E-01,   2.5000E-01, As]
cartesian_forces: # hartree/bohr
- [  5.27091166E-28,   5.27091166E-28,  -1.58127350E-27, ]
- [ -5.27091166E-28,  -5.27091166E-28,   1.58127350E-27, ]
force_length_stats: {min:   1.74816363E-27, max:   1.74816363E-27, mean:   1.74816363E-27, }
...

 Integrated electronic density in atomic spheres:
 ------------------------------------------------
 Atom  Sphere_radius  Integrated_density
    1        2.00000         10.78872967
    2        2.00000         12.79142895
================================================================================
 
 ----iterations are completed or convergence reached----
 
 Mean square residual over all n,k,spin=   20.028E-12; max=  64.984E-12
 reduced coordinates (array xred) for    2 atoms
       0.000000000000      0.000000000000      0.000000000000
       0.250000000000      0.250000000000      0.250000000000
 rms dE/dt=  6.2803E-27; max dE/dt=  8.6165E-27; dE/dt below (all hartree)
    1       0.000000000000      0.000000000000     -0.000000000000
    2      -0.000000000000     -0.000000000000      0.000000000000
 
 cartesian coordinates (angstrom) at end:
    1      0.00000000000000     0.00000000000000     0.00000000000000
    2      1.35165088504101     1.35165088504101     1.35165088504101
 
 cartesian forces (hartree/bohr) at end:
    1      0.00000000000000     0.00000000000000    -0.00000000000000
    2     -0.00000000000000    -0.00000000000000     0.00000000000000
 frms,max,avg= 1.0093027E-27 1.5812735E-27   0.000E+00  0.000E+00  0.000E+00 h/b
 
 cartesian forces (eV/Angstrom) at end:
    1      0.00000000000000     0.00000000000000    -0.00000000000000
    2     -0.00000000000000    -0.00000000000000     0.00000000000000
 frms,max,avg= 5.1900429E-26 8.1312346E-26   0.000E+00  0.000E+00  0.000E+00 e/A
 length scales= 10.217000000000 10.217000000000 10.217000000000 bohr
              =  5.406603540164  5.406603540164  5.406603540164 angstroms
 prteigrs : about to open file ngkpto_DS11_EIG
 Fermi (or HOMO) energy (eV) =   6.52470   Average Vxc (eV)= -10.30605
 Eigenvalues (   eV  ) for nkpt=   1  k points:
 kpt#   1, nband= 15, wtk=  1.00000, kpt=  0.0000  0.0000  0.0000 (reduced coord)
 -27.07771  -27.07771  -27.07771  -27.06323  -27.06323   -9.98717   -9.98717   -9.98717
  -9.94790   -9.94790   -7.44903    6.52470    6.52470    6.52470    7.79331

--- !EnergyTerms
iteration_state     : {dtset: 11, }
comment             : Components of total free energy in Hartree
kinetic             :  1.40391725707962E+02
hartree             :  5.59599746688334E+01
xc                  : -4.44748679129814E+01
Ewald energy        : -1.03709047935390E+02
psp_core            :  5.59805059945077E+00
local_psp           : -1.44729728904370E+02
non_local_psp       : -9.05713094720738E+01
total_energy        : -1.81535203248570E+02
total_energy_eV     : -4.93982409969995E+03
band_energy         : -1.27220158104504E+01
...

 
 Cartesian components of stress tensor (hartree/bohr^3)
  sigma(1 1)= -2.55981578E-03  sigma(3 2)=  0.00000000E+00
  sigma(2 2)= -2.55981578E-03  sigma(3 1)=  0.00000000E+00
  sigma(3 3)= -2.55981578E-03  sigma(2 1)=  0.00000000E+00
 
-Cartesian components of stress tensor (GPa)         [Pressure=  7.5312E+01 GPa]
- sigma(1 1)= -7.53123677E+01  sigma(3 2)=  0.00000000E+00
- sigma(2 2)= -7.53123677E+01  sigma(3 1)=  0.00000000E+00
- sigma(3 3)= -7.53123677E+01  sigma(2 1)=  0.00000000E+00
 
================================================================================
== DATASET 21 ==================================================================
-   mpi_nproc: 1, omp_nthreads: 1 (-1 if OMP is not activated)
 

--- !DatasetInfo
iteration_state: {dtset: 21, }
dimensions: {natom: 2, nkpt: 3, mband: 15, nsppol: 1, nspinor: 1, nspden: 1, mpw: 1499, }
cutoff_energies: {ecut:  38.0, pawecutdg:  -1.0, }
electrons: {nelect:   2.80000000E+01, charge:   0.00000000E+00, occopt:   1.00000000E+00, tsmear:   1.00000000E-02, }
meta: {optdriver: 0, ionmov: 0, optcell: 0, iscf: 7, paral_kgb: 0, }
...

 Real(R)+Recip(G) space primitive vectors, cartesian coordinates (Bohr,Bohr^-1):
 R(1)=  0.0000000  5.1085000  5.1085000  G(1)= -0.0978761  0.0978761  0.0978761
 R(2)=  5.1085000  0.0000000  5.1085000  G(2)=  0.0978761 -0.0978761  0.0978761
 R(3)=  5.1085000  5.1085000  0.0000000  G(3)=  0.0978761  0.0978761 -0.0978761
 Unit cell volume ucvol=  2.6663072E+02 bohr^3
 Angles (23,13,12)=  6.00000000E+01  6.00000000E+01  6.00000000E+01 degrees
 
 getcut: wavevector=  0.0000  0.0000  0.0000  ngfft=  45  45  45
         ecut(hartree)=     38.000   => boxcut(ratio)=   2.19476
--------------------------------------------------------------------------------
 
_setup2: Arith. and geom. avg. npw (full set) are    2978.625    2978.555
 
================================================================================

--- !BeginCycle
iteration_state: {dtset: 21, }
solver: {iscf: 7, nstep: 20, nline: 4, wfoptalg: 0, }
tolerances: {toldfe: 1.00E-06, }
...
 
     iter   Etot(hartree)      deltaE(h)  residm     vres2
 ETOT  1  -174.91447267578    -1.749E+02 9.910E-01 1.322E+04
 ETOT  2  -179.78129722427    -4.867E+00 8.850E-02 2.193E+04
 ETOT  3  -181.77609091441    -1.995E+00 2.820E-02 3.581E+03
 ETOT  4  -181.94853038788    -1.724E-01 1.819E-03 2.031E+03
 ETOT  5  -182.09057438670    -1.420E-01 9.434E-04 6.954E+02
 ETOT  6  -182.14673910630    -5.616E-02 1.657E-03 1.734E+02
 ETOT  7  -182.16478690965    -1.805E-02 6.218E-04 9.933E+00
 ETOT  8  -182.16566815185    -8.812E-04 6.148E-05 2.037E+00
 ETOT  9  -182.16589340006    -2.252E-04 9.627E-05 4.121E-02
 ETOT 10  -182.16589831398    -4.914E-06 6.417E-06 8.345E-06
 ETOT 11  -182.16589833250    -1.852E-08 1.536E-05 5.863E-06
 ETOT 12  -182.16589833400    -1.496E-09 1.504E-06 7.341E-08
 
 At SCF step   12, etot is converged : 
  for the second time, diff in etot=  1.496E-09 < toldfe=  1.000E-06
 
 Cartesian components of stress tensor (hartree/bohr^3)
  sigma(1 1)= -6.94826165E-04  sigma(3 2)=  0.00000000E+00
  sigma(2 2)= -6.94826165E-04  sigma(3 1)=  0.00000000E+00
  sigma(3 3)= -6.94826165E-04  sigma(2 1)=  0.00000000E+00
 

--- !ResultsGS
iteration_state: {dtset: 21, }
comment   : Summary of ground state results
lattice_vectors:
- [  0.0000000,   5.1085000,   5.1085000, ]
- [  5.1085000,   0.0000000,   5.1085000, ]
- [  5.1085000,   5.1085000,   0.0000000, ]
lattice_lengths: [   7.22451,    7.22451,    7.22451, ]
lattice_angles: [ 60.000,  60.000,  60.000, ] # degrees, (23, 13, 12)
lattice_volume:   2.6663072E+02
convergence: {deltae: -1.496E-09, res2:  7.341E-08, residm:  1.504E-06, diffor: null, }
etotal    :  -1.82165898E+02
entropy   :   0.00000000E+00
fermie    :   2.06724061E-01
[...]
            nband71        15
            nband81        15
            nband91        15
            nband101       15
            nband111       15
            nband121       15
            nband131       15
            nband141       15
            nband151       15
           ndtset          15
           ndivsm          20
            ngfft          45      45      45
             nkpt11         1
             nkpt21         3
             nkpt31         4
             nkpt41         8
             nkpt51        10
             nkpt61        16
             nkpt71        20
             nkpt81        29
             nkpt91        35
             nkpt101       47
             nkpt111       56
             nkpt121       72
             nkpt131       84
             nkpt141      104
             nkpt151      120
            nstep          20
             nsym          24
           ntypat           2
              occ11    2.000000  2.000000  2.000000  2.000000  2.000000  2.000000
                       2.000000  2.000000  2.000000  2.000000  2.000000  2.000000
                       2.000000  2.000000  0.000000
              occ21    2.000000  2.000000  2.000000  2.000000  2.000000  2.000000
                       2.000000  2.000000  2.000000  2.000000  2.000000  2.000000
                       2.000000  2.000000  0.000000
              occ31    2.000000  2.000000  2.000000  2.000000  2.000000  2.000000
                       2.000000  2.000000  2.000000  2.000000  2.000000  2.000000
                       2.000000  2.000000  0.000000
              occ41    2.000000  2.000000  2.000000  2.000000  2.000000  2.000000
                       2.000000  2.000000  2.000000  2.000000  2.000000  2.000000
                       2.000000  2.000000  0.000000
              occ51    2.000000  2.000000  2.000000  2.000000  2.000000  2.000000
                       2.000000  2.000000  2.000000  2.000000  2.000000  2.000000
                       2.000000  2.000000  0.000000
              occ61    2.000000  2.000000  2.000000  2.000000  2.000000  2.000000
                       2.000000  2.000000  2.000000  2.000000  2.000000  2.000000
                       2.000000  2.000000  0.000000
              occ71    2.000000  2.000000  2.000000  2.000000  2.000000  2.000000
                       2.000000  2.000000  2.000000  2.000000  2.000000  2.000000
                       2.000000  2.000000  0.000000
              occ81    2.000000  2.000000  2.000000  2.000000  2.000000  2.000000
                       2.000000  2.000000  2.000000  2.000000  2.000000  2.000000
                       2.000000  2.000000  0.000000
              occ91    2.000000  2.000000  2.000000  2.000000  2.000000  2.000000
                       2.000000  2.000000  2.000000  2.000000  2.000000  2.000000
                       2.000000  2.000000  0.000000
              occ101   2.000000  2.000000  2.000000  2.000000  2.000000  2.000000
                       2.000000  2.000000  2.000000  2.000000  2.000000  2.000000
                       2.000000  2.000000  0.000000
              occ111   2.000000  2.000000  2.000000  2.000000  2.000000  2.000000
                       2.000000  2.000000  2.000000  2.000000  2.000000  2.000000
                       2.000000  2.000000  0.000000
              occ121   2.000000  2.000000  2.000000  2.000000  2.000000  2.000000
                       2.000000  2.000000  2.000000  2.000000  2.000000  2.000000
                       2.000000  2.000000  0.000000
              occ131   2.000000  2.000000  2.000000  2.000000  2.000000  2.000000
                       2.000000  2.000000  2.000000  2.000000  2.000000  2.000000
                       2.000000  2.000000  0.000000
              occ141   2.000000  2.000000  2.000000  2.000000  2.000000  2.000000
                       2.000000  2.000000  2.000000  2.000000  2.000000  2.000000
                       2.000000  2.000000  0.000000
              occ151   2.000000  2.000000  2.000000  2.000000  2.000000  2.000000
                       2.000000  2.000000  2.000000  2.000000  2.000000  2.000000
                       2.000000  2.000000  0.000000
            rprim      0.0000000000E+00  5.0000000000E-01  5.0000000000E-01
                       5.0000000000E-01  0.0000000000E+00  5.0000000000E-01
                       5.0000000000E-01  5.0000000000E-01  0.0000000000E+00
          spgroup         216
           strten11   -2.5598157789E-03 -2.5598157789E-03 -2.5598157789E-03
                       0.0000000000E+00  0.0000000000E+00  0.0000000000E+00
           strten21   -6.9482616527E-04 -6.9482616527E-04 -6.9482616527E-04
                       0.0000000000E+00  0.0000000000E+00  0.0000000000E+00
           strten31   -4.7202872948E-04 -4.7202872948E-04 -4.7202872948E-04
                       0.0000000000E+00  0.0000000000E+00  0.0000000000E+00
           strten41   -4.2633463913E-04 -4.2633463913E-04 -4.2633463913E-04
                       0.0000000000E+00  0.0000000000E+00  0.0000000000E+00
           strten51   -4.1360956408E-04 -4.1360956408E-04 -4.1360956408E-04
                       0.0000000000E+00  0.0000000000E+00  0.0000000000E+00
           strten61   -4.0949520516E-04 -4.0949520516E-04 -4.0949520516E-04
                       0.0000000000E+00  0.0000000000E+00  0.0000000000E+00
           strten71   -4.0854714101E-04 -4.0854714101E-04 -4.0854714101E-04
                       0.0000000000E+00  0.0000000000E+00  0.0000000000E+00
           strten81   -4.0949837677E-04 -4.0949837677E-04 -4.0949837677E-04
                       0.0000000000E+00  0.0000000000E+00  0.0000000000E+00
           strten91   -4.0944124848E-04 -4.0944124848E-04 -4.0944124848E-04
                       0.0000000000E+00  0.0000000000E+00  0.0000000000E+00
           strten101  -4.0953185666E-04 -4.0953185666E-04 -4.0953185666E-04
                       0.0000000000E+00  0.0000000000E+00  0.0000000000E+00
           strten111  -4.0943995819E-04 -4.0943995819E-04 -4.0943995819E-04
                       0.0000000000E+00  0.0000000000E+00  0.0000000000E+00
           strten121  -4.0962720948E-04 -4.0962720948E-04 -4.0962720948E-04
                       0.0000000000E+00  0.0000000000E+00  0.0000000000E+00
           strten131  -4.0974755576E-04 -4.0974755576E-04 -4.0974755576E-04
                       0.0000000000E+00  0.0000000000E+00  0.0000000000E+00
           strten141  -4.0981436451E-04 -4.0981436451E-04 -4.0981436451E-04
                       0.0000000000E+00  0.0000000000E+00  0.0000000000E+00
           strten151  -4.0957610167E-04 -4.0957610167E-04 -4.0957610167E-04
                       0.0000000000E+00  0.0000000000E+00  0.0000000000E+00
           symrel      1  0  0   0  1  0   0  0  1       0 -1  1   0 -1  0   1 -1  0
                      -1  0  0  -1  0  1  -1  1  0       0  1 -1   1  0 -1   0  0 -1
                      -1  0  0  -1  1  0  -1  0  1       0 -1  1   1 -1  0   0 -1  0
                       1  0  0   0  0  1   0  1  0       0  1 -1   0  0 -1   1  0 -1
                      -1  0  1  -1  1  0  -1  0  0       0 -1  0   1 -1  0   0 -1  1
                       1  0 -1   0  0 -1   0  1 -1       0  1  0   0  0  1   1  0  0
                       1  0 -1   0  1 -1   0  0 -1       0 -1  0   0 -1  1   1 -1  0
                      -1  0  1  -1  0  0  -1  1  0       0  1  0   1  0  0   0  0  1
                       0  0 -1   0  1 -1   1  0 -1       1 -1  0   0 -1  1   0 -1  0
                       0  0  1   1  0  0   0  1  0      -1  1  0  -1  0  0  -1  0  1
                       0  0  1   0  1  0   1  0  0       1 -1  0   0 -1  0   0 -1  1
                       0  0 -1   1  0 -1   0  1 -1      -1  1  0  -1  0  1  -1  0  0
           toldfe      1.00000000E-06 Hartree
            typat      1  2
              wtk11      1.00000
              wtk21      0.12500    0.50000    0.37500
              wtk31      0.03704    0.29630    0.22222    0.44444
              wtk41      0.01563    0.12500    0.06250    0.09375    0.37500    0.18750
                         0.04688    0.09375
              wtk51      0.00800    0.06400    0.06400    0.04800    0.19200    0.19200
                         0.09600    0.04800    0.09600    0.19200
              wtk61      0.00463    0.03704    0.03704    0.01852    0.02778    0.11111
                         0.11111    0.11111    0.05556    0.02778    0.11111    0.05556
                         0.01389    0.11111    0.11111    0.05556
              wtk71      0.00292    0.02332    0.02332    0.02332    0.01749    0.06997
                         0.06997    0.06997    0.06997    0.03499    0.01749    0.06997
                         0.06997    0.03499    0.01749    0.03499    0.06997    0.13994
                         0.06997    0.06997
              wtk81      0.00195    0.01563    0.01563    0.01563    0.00781    0.01172
                         0.04688    0.04688    0.04688    0.04688    0.04688    0.02344
                         0.01172    0.04688    0.04688    0.04688    0.02344    0.01172
                         0.04688    0.02344    0.00586    0.04688    0.09375    0.04688
                         0.04688    0.09375    0.04688    0.02344    0.01172
              wtk91      0.00137    0.01097    0.01097    0.01097    0.01097    0.00823
                         0.03292    0.03292    0.03292    0.03292    0.03292    0.03292
                         0.01646    0.00823    0.03292    0.03292    0.03292    0.03292
                         0.01646    0.00823    0.03292    0.03292    0.01646    0.00823
                         0.01646    0.03292    0.06584    0.06584    0.03292    0.06584
                         0.06584    0.03292    0.03292    0.03292    0.03292
              wtk101     0.00100    0.00800    0.00800    0.00800    0.00800    0.00400
                         0.00600    0.02400    0.02400    0.02400    0.02400    0.02400
                         0.02400    0.02400    0.01200    0.00600    0.02400    0.02400
                         0.02400    0.02400    0.02400    0.01200    0.00600    0.02400
                         0.02400    0.02400    0.01200    0.00600    0.02400    0.01200
                         0.00300    0.02400    0.04800    0.04800    0.02400    0.02400
                         0.04800    0.04800    0.04800    0.02400    0.02400    0.04800
                         0.02400    0.01200    0.02400    0.02400    0.01200
              wtk111     0.00075    0.00601    0.00601    0.00601    0.00601    0.00601
                         0.00451    0.01803    0.01803    0.01803    0.01803    0.01803
                         0.01803    0.01803    0.01803    0.00902    0.00451    0.01803
                         0.01803    0.01803    0.01803    0.01803    0.01803    0.00902
                         0.00451    0.01803    0.01803    0.01803    0.01803    0.00902
                         0.00451    0.01803    0.01803    0.00902    0.00451    0.00902
                         0.01803    0.03606    0.03606    0.03606    0.01803    0.03606
                         0.03606    0.03606    0.03606    0.01803    0.01803    0.03606
                         0.03606    0.01803
              wtk121     0.00058    0.00463    0.00463    0.00463    0.00463    0.00463
                         0.00231    0.00347    0.01389    0.01389    0.01389    0.01389
                         0.01389    0.01389    0.01389    0.01389    0.01389    0.00694
                         0.00347    0.01389    0.01389    0.01389    0.01389    0.01389
                         0.01389    0.01389    0.00694    0.00347    0.01389    0.01389
                         0.01389    0.01389    0.01389    0.00694    0.00347    0.01389
                         0.01389    0.01389    0.00694    0.00347    0.01389    0.00694
                         0.00174    0.01389    0.02778    0.02778    0.02778    0.01389
                         0.01389    0.02778
              wtk131     0.00046    0.00364    0.00364    0.00364    0.00364    0.00364
                         0.00364    0.00273    0.01092    0.01092    0.01092    0.01092
                         0.01092    0.01092    0.01092    0.01092    0.01092    0.01092
                         0.00546    0.00273    0.01092    0.01092    0.01092    0.01092
                         0.01092    0.01092    0.01092    0.01092    0.00546    0.00273
                         0.01092    0.01092    0.01092    0.01092    0.01092    0.01092
                         0.00546    0.00273    0.01092    0.01092    0.01092    0.01092
                         0.00546    0.00273    0.01092    0.01092    0.00546    0.00273
                         0.00546    0.01092
              wtk141     0.00036    0.00292    0.00292    0.00292    0.00292    0.00292
                         0.00292    0.00146    0.00219    0.00875    0.00875    0.00875
                         0.00875    0.00875    0.00875    0.00875    0.00875    0.00875
                         0.00875    0.00875    0.00437    0.00219    0.00875    0.00875
                         0.00875    0.00875    0.00875    0.00875    0.00875    0.00875
                         0.00875    0.00437    0.00219    0.00875    0.00875    0.00875
                         0.00875    0.00875    0.00875    0.00875    0.00437    0.00219
                         0.00875    0.00875    0.00875    0.00875    0.00875    0.00437
                         0.00219    0.00875
              wtk151     0.00030    0.00237    0.00237    0.00237    0.00237    0.00237
                         0.00237    0.00237    0.00178    0.00711    0.00711    0.00711
                         0.00711    0.00711    0.00711    0.00711    0.00711    0.00711
                         0.00711    0.00711    0.00711    0.00356    0.00178    0.00711
                         0.00711    0.00711    0.00711    0.00711    0.00711    0.00711
                         0.00711    0.00711    0.00711    0.00356    0.00178    0.00711
                         0.00711    0.00711    0.00711    0.00711    0.00711    0.00711
                         0.00711    0.00356    0.00178    0.00711    0.00711    0.00711
                         0.00711    0.00711
                       outvars : Printing only first  50 k-points.
           xangst      0.0000000000E+00  0.0000000000E+00  0.0000000000E+00
                       1.3516508850E+00  1.3516508850E+00  1.3516508850E+00
            xcart      0.0000000000E+00  0.0000000000E+00  0.0000000000E+00
                       2.5542500000E+00  2.5542500000E+00  2.5542500000E+00
             xred      0.0000000000E+00  0.0000000000E+00  0.0000000000E+00
                       2.5000000000E-01  2.5000000000E-01  2.5000000000E-01
            znucl       31.00000   33.00000
 
================================================================================


- Timing analysis has been suppressed with timopt=0



================================================================================

 Suggested references for the acknowledgment of ABINIT usage.

 The users of ABINIT have little formal obligations with respect to the ABINIT group
 (those specified in the GNU General Public License, http://www.gnu.org/copyleft/gpl.txt).
 However, it is common practice in the scientific literature,
 to acknowledge the efforts of people that have made the research possible.
 In this spirit, please find below suggested citations of work written by ABINIT developers,
 corresponding to implementations inside of ABINIT that you have used in the present run.
 Note also that it will be of great value to readers of publications presenting these results,
 to read papers enabling them to understand the theoretical formalism and details
 of the ABINIT implementation.
 For information on why they are suggested, see also https://docs.abinit.org/theory/acknowledgments.
-
- [1] Libxc: A library of exchange and correlation functionals for density functional theory.
- M.A.L. Marques, M.J.T. Oliveira, T. Burnus, Computer Physics Communications 183, 2227 (2012).
- Comment: to be cited when LibXC is used (negative value of ixc)
- Strong suggestion to cite this paper.
- DOI and bibtex: see https://docs.abinit.org/theory/bibliography/#marques2012
-
- [2] The Abinit project: Impact, environment and recent developments.
- Computer Phys. Comm. 248, 107042 (2020).
- X.Gonze, B. Amadon, G. Antonius, F.Arnardi, L.Baguet, J.-M.Beuken,
- J.Bieder, F.Bottin, J.Bouchet, E.Bousquet, N.Brouwer, F.Bruneval,
- G.Brunin, T.Cavignac, J.-B. Charraud, Wei Chen, M.Cote, S.Cottenier,
- J.Denier, G.Geneste, Ph.Ghosez, M.Giantomassi, Y.Gillet, O.Gingras,
- D.R.Hamann, G.Hautier, Xu He, N.Helbig, N.Holzwarth, Y.Jia, F.Jollet,
- W.Lafargue-Dit-Hauret, K.Lejaeghere, M.A.L.Marques, A.Martin, C.Martins,
- H.P.C. Miranda, F.Naccarato, K. Persson, G.Petretto, V.Planes, Y.Pouillon,
- S.Prokhorenko, F.Ricci, G.-M.Rignanese, A.H.Romero, M.M.Schmitt, M.Torrent,
- M.J.van Setten, B.Van Troeye, M.J.Verstraete, G.Zerah and J.W.Zwanzig
- Comment: the fifth generic paper describing the ABINIT project.
- Note that a version of this paper, that is not formatted for Computer Phys. Comm. 
- is available at https://www.abinit.org/sites/default/files/ABINIT20.pdf .
- The licence allows the authors to put it on the Web.
- DOI and bibtex: see https://docs.abinit.org/theory/bibliography/#gonze2020
-
- [3] Optimized norm-conserving Vanderbilt pseudopotentials.
- D.R. Hamann, Phys. Rev. B 88, 085117 (2013).
- Comment: Some pseudopotential generated using the ONCVPSP code were used.
- DOI and bibtex: see https://docs.abinit.org/theory/bibliography/#hamann2013
-
- [4] ABINIT: Overview, and focus on selected capabilities
- J. Chem. Phys. 152, 124102 (2020).
- A. Romero, D.C. Allan, B. Amadon, G. Antonius, T. Applencourt, L.Baguet,
- J.Bieder, F.Bottin, J.Bouchet, E.Bousquet, F.Bruneval,
- G.Brunin, D.Caliste, M.Cote,
- J.Denier, C. Dreyer, Ph.Ghosez, M.Giantomassi, Y.Gillet, O.Gingras,
- D.R.Hamann, G.Hautier, F.Jollet, G. Jomard,
- A.Martin, 
- H.P.C. Miranda, F.Naccarato, G.Petretto, N.A. Pike, V.Planes,
- S.Prokhorenko, T. Rangel, F.Ricci, G.-M.Rignanese, M.Royo, M.Stengel, M.Torrent,
- M.J.van Setten, B.Van Troeye, M.J.Verstraete, J.Wiktor, J.W.Zwanziger, and X.Gonze.
- Comment: a global overview of ABINIT, with focus on selected capabilities .
- Note that a version of this paper, that is not formatted for J. Chem. Phys 
- is available at https://www.abinit.org/sites/default/files/ABINIT20_JPC.pdf .
- The licence allows the authors to put it on the Web.
- DOI and bibtex: see https://docs.abinit.org/theory/bibliography/#romero2020
-
- [5] Recent developments in the ABINIT software package.
- Computer Phys. Comm. 205, 106 (2016).
- X.Gonze, F.Jollet, F.Abreu Araujo, D.Adams, B.Amadon, T.Applencourt,
- C.Audouze, J.-M.Beuken, J.Bieder, A.Bokhanchuk, E.Bousquet, F.Bruneval
- D.Caliste, M.Cote, F.Dahm, F.Da Pieve, M.Delaveau, M.Di Gennaro,
- B.Dorado, C.Espejo, G.Geneste, L.Genovese, A.Gerossier, M.Giantomassi,
- Y.Gillet, D.R.Hamann, L.He, G.Jomard, J.Laflamme Janssen, S.Le Roux,
- A.Levitt, A.Lherbier, F.Liu, I.Lukacevic, A.Martin, C.Martins,
- M.J.T.Oliveira, S.Ponce, Y.Pouillon, T.Rangel, G.-M.Rignanese,
- A.H.Romero, B.Rousseau, O.Rubel, A.A.Shukri, M.Stankovski, M.Torrent,
- M.J.Van Setten, B.Van Troeye, M.J.Verstraete, D.Waroquier, J.Wiktor,
- B.Xu, A.Zhou, J.W.Zwanziger.
- Comment: the fourth generic paper describing the ABINIT project.
- Note that a version of this paper, that is not formatted for Computer Phys. Comm. 
- is available at https://www.abinit.org/sites/default/files/ABINIT16.pdf .
- The licence allows the authors to put it on the Web.
- DOI and bibtex: see https://docs.abinit.org/theory/bibliography/#gonze2016
-
- Proc.   0 individual time (sec): cpu=      10897.7  wall=       3388.4
 
================================================================================
 
 Calculation completed.
.Delivered   0 WARNINGs and  24 COMMENTs to log file.
+Overall time at end (sec) : cpu=      10897.7  wall=       3388.4
