
.Version 10.0.3 of ABINIT, released Apr 2024.
.(MPI version, prepared for a x86_64_linux_intel2021.10 computer) 

.Copyright (C) 1998-2024 ABINIT group . 
 ABINIT comes with ABSOLUTELY NO WARRANTY.
 It is free software, and you are welcome to redistribute it
 under certain conditions (GNU General Public License,
 see ~abinit/COPYING or http://www.gnu.org/copyleft/gpl.txt).

 ABINIT is a project of the Universite Catholique de Louvain,
 Corning Inc. and other collaborators, see ~abinit/doc/developers/contributors.txt .
 Please read https://docs.abinit.org/theory/acknowledgments for suggested
 acknowledgments of the ABINIT effort.
 For more information, see https://www.abinit.org .

.Starting date : Fri 24 May 2024.
- ( at 02h05 )
  
- input  file    -> acell.abi
- output file    -> acell.abo
- root for input  files -> acelli
- root for output files -> acello
 
 DATASET    1 : space group F-4 3 m (#216); Bravais cF (face-center cubic)
================================================================================
 Values of the parameters that define the memory need for DATASET  1.
     intxc =       0    ionmov =       2      iscf =       7    lmnmax =       8
     lnmax =       8     mgfft =      45  mpssoang =       3    mqgrid =    3001
     natom =       2  nloc_mem =       1    nspden =       1   nspinor =       1
    nsppol =       1      nsym =      24    n1xccc =    2501    ntypat =       2
    occopt =       1   xclevel =       2
-    mband =          15        mffmem =           1         mkmem =          10
       mpw =        3479          nfft =       91125          nkpt =          10
================================================================================
P This job should need less than                      38.910 Mbytes of memory.
  Rough estimation (10% accuracy) of disk space for files :
_ WF disk file :      7.965 Mbytes ; DEN or POT disk file :      0.697 Mbytes.
================================================================================
 
--------------------------------------------------------------------------------
------------- Echo of variables that govern the present computation ------------
--------------------------------------------------------------------------------
-
- outvars: echo of selected default values                                      
-   iomode0 =  0 , fftalg0 =112 , wfoptalg0 =  0
-
- outvars: echo of global parameters not present in the input file              
-  max_nthreads =    6
-
 -outvars: echo values of preprocessed input variables --------
            acell      1.0217000000E+01  1.0217000000E+01  1.0217000000E+01 Bohr
              amu      6.97230000E+01  7.49215900E+01
           diemac      1.20000000E+01
          dilatmx      1.05000000E+00
             ecut      3.80000000E+01 Hartree
           ecutsm      5.00000000E-01 Hartree
           enunit           1
-          fftalg         112
           ionmov           2
           istwfk        2    0    0    0    0    0    0    0    0    0
              ixc     -116133
           jdtset        1
              kpt      0.00000000E+00  0.00000000E+00  0.00000000E+00
                       2.00000000E-01  0.00000000E+00  0.00000000E+00
                       4.00000000E-01  0.00000000E+00  0.00000000E+00
                       2.00000000E-01  2.00000000E-01  0.00000000E+00
                       4.00000000E-01  2.00000000E-01  0.00000000E+00
                      -4.00000000E-01  2.00000000E-01  0.00000000E+00
                      -2.00000000E-01  2.00000000E-01  0.00000000E+00
                       4.00000000E-01  4.00000000E-01  0.00000000E+00
                      -4.00000000E-01  4.00000000E-01  0.00000000E+00
                      -4.00000000E-01  4.00000000E-01  2.00000000E-01
         kptrlatt        5    0    0      0    5    0      0    0    5
          kptrlen      3.61225499E+01
P           mkmem          10
            natom           2
            nband          15
           ndtset           1
           ndivsm          20
            ngfft          45      45      45
             nkpt          10
            nstep          20
             nsym          24
            ntime          10
           ntypat           2
              occ      2.000000  2.000000  2.000000  2.000000  2.000000  2.000000
                       2.000000  2.000000  2.000000  2.000000  2.000000  2.000000
                       2.000000  2.000000  0.000000
          optcell           1
            rprim      0.0000000000E+00  5.0000000000E-01  5.0000000000E-01
                       5.0000000000E-01  0.0000000000E+00  5.0000000000E-01
                       5.0000000000E-01  5.0000000000E-01  0.0000000000E+00
          spgroup         216
           symrel      1  0  0   0  1  0   0  0  1       0 -1  1   0 -1  0   1 -1  0
                      -1  0  0  -1  0  1  -1  1  0       0  1 -1   1  0 -1   0  0 -1
                      -1  0  0  -1  1  0  -1  0  1       0 -1  1   1 -1  0   0 -1  0
                       1  0  0   0  0  1   0  1  0       0  1 -1   0  0 -1   1  0 -1
                      -1  0  1  -1  1  0  -1  0  0       0 -1  0   1 -1  0   0 -1  1
                       1  0 -1   0  0 -1   0  1 -1       0  1  0   0  0  1   1  0  0
                       1  0 -1   0  1 -1   0  0 -1       0 -1  0   0 -1  1   1 -1  0
                      -1  0  1  -1  0  0  -1  1  0       0  1  0   1  0  0   0  0  1
                       0  0 -1   0  1 -1   1  0 -1       1 -1  0   0 -1  1   0 -1  0
                       0  0  1   1  0  0   0  1  0      -1  1  0  -1  0  0  -1  0  1
                       0  0  1   0  1  0   1  0  0       1 -1  0   0 -1  0   0 -1  1
                       0  0 -1   1  0 -1   0  1 -1      -1  1  0  -1  0  1  -1  0  0
           toldfe      1.00000000E-06 Hartree
            typat      1  2
              wtk        0.00800    0.06400    0.06400    0.04800    0.19200    0.19200
                         0.09600    0.04800    0.09600    0.19200
           xangst      0.0000000000E+00  0.0000000000E+00  0.0000000000E+00
                       1.3516508850E+00  1.3516508850E+00  1.3516508850E+00
            xcart      0.0000000000E+00  0.0000000000E+00  0.0000000000E+00
                       2.5542500000E+00  2.5542500000E+00  2.5542500000E+00
             xred      0.0000000000E+00  0.0000000000E+00  0.0000000000E+00
                       2.5000000000E-01  2.5000000000E-01  2.5000000000E-01
            znucl       31.00000   33.00000
 
================================================================================
 
 chkinp: Checking input parameters for consistency, jdtset=   1.
 
================================================================================
== DATASET  1 ==================================================================
-   mpi_nproc: 1, omp_nthreads: 1 (-1 if OMP is not activated)
 

--- !DatasetInfo
iteration_state: {dtset: 1, }
dimensions: {natom: 2, nkpt: 10, mband: 15, nsppol: 1, nspinor: 1, nspden: 1, mpw: 3479, }
cutoff_energies: {ecut:  38.0, pawecutdg:  -1.0, }
electrons: {nelect:   2.80000000E+01, charge:   0.00000000E+00, occopt:   1.00000000E+00, tsmear:   1.00000000E-02, }
meta: {optdriver: 0, ionmov: 2, optcell: 1, iscf: 7, paral_kgb: 0, }
...

 Real(R)+Recip(G) space primitive vectors, cartesian coordinates (Bohr,Bohr^-1):
 R(1)=  0.0000000  5.1085000  5.1085000  G(1)= -0.0978761  0.0978761  0.0978761
 R(2)=  5.1085000  0.0000000  5.1085000  G(2)=  0.0978761 -0.0978761  0.0978761
 R(3)=  5.1085000  5.1085000  0.0000000  G(3)=  0.0978761  0.0978761 -0.0978761
 Unit cell volume ucvol=  2.6663072E+02 bohr^3
 Angles (23,13,12)=  6.00000000E+01  6.00000000E+01  6.00000000E+01 degrees
 
 getcut: wavevector=  0.0000  0.0000  0.0000  ngfft=  45  45  45
         ecut(hartree)=     41.895   => boxcut(ratio)=   2.09025
 
--- Pseudopotential description ------------------------------------------------
- pspini: atom type   1  psp file is Ga.psp8
- pspatm: opening atomic psp file    Ga.psp8
- Ga    ONCVPSP-3.3.0  r_core=   1.66857   1.75011   1.90252
- 31.00000  13.00000    180430                znucl, zion, pspdat
    8 -116133    2    4       600   0.00000   pspcod,pspxc,lmax,lloc,mmax,r2well
    5.99000000000000    5.00000000000000    0.00000000000000   rchrg,fchrg,qchrg
     nproj     2     4     2
     spin-orbit psp, extension_switch     3
        nprojso     4     3
  pspatm : epsatm=   24.51314239
         --- l  ekb(1:nproj) -->
             0    1.158767    7.056324
             1    6.883841    1.296077    0.006208    0.000035
             2   -8.367207   -2.818603
  spin-orbit 1
  spin-orbit 1
  spin-orbit 1
  spin-orbit 1
  spin-orbit 2
  spin-orbit 2
  spin-orbit 2
 pspatm: atomic psp has been read  and splines computed
 
- pspini: atom type   2  psp file is As.psp8
- pspatm: opening atomic psp file    As.psp8
- As    ONCVPSP-3.3.0  r_core=   1.76603   1.70395   1.80867
- 33.00000  15.00000    180430                znucl, zion, pspdat
    8 -116133    2    4       600   0.00000   pspcod,pspxc,lmax,lloc,mmax,r2well
    5.99000000000000    5.00000000000000    0.00000000000000   rchrg,fchrg,qchrg
     nproj     2     4     2
     spin-orbit psp, extension_switch     3
        nprojso     4     3
  pspatm : epsatm=   28.79443881
         --- l  ekb(1:nproj) -->
             0    0.868725    8.270752
             1    4.918619    0.757526    0.005498    0.000037
             2  -10.046656   -4.075565
  spin-orbit 1
  spin-orbit 1
  spin-orbit 1
  spin-orbit 1
  spin-orbit 2
  spin-orbit 2
  spin-orbit 2
 pspatm: atomic psp has been read  and splines computed
 
   1.49261227E+03                                ecore*ucvol(ha*bohr**3)
--------------------------------------------------------------------------------
 
_setup2: Arith. and geom. avg. npw (full set) are    3450.104    3450.060
 
================================================================================
 
=== [ionmov= 2] Broyden-Fletcher-Goldfard-Shanno method (forces)            
================================================================================
 
--- Iteration: ( 1/10) Internal Cycle: (1/1)
--------------------------------------------------------------------------------
 
---SELF-CONSISTENT-FIELD CONVERGENCE--------------------------------------------

--- !BeginCycle
iteration_state: {dtset: 1, itime: 1, icycle: 1, }
solver: {iscf: 7, nstep: 20, nline: 4, wfoptalg: 0, }
tolerances: {toldfe: 1.00E-06, }
...
 
     iter   Etot(hartree)      deltaE(h)  residm     vres2
 ETOT  1  -174.43909692700    -1.744E+02 8.364E-01 1.549E+04
 ETOT  2  -179.58700624454    -5.148E+00 6.046E-01 2.525E+04
 ETOT  3  -181.79454009000    -2.208E+00 3.537E-02 4.424E+03
 ETOT  4  -182.03028083137    -2.357E-01 6.936E-03 2.240E+03
 ETOT  5  -182.15955573689    -1.293E-01 3.617E-03 9.871E+02
 ETOT  6  -182.23859750088    -7.904E-02 5.788E-04 2.339E+02
 ETOT  7  -182.26358073020    -2.498E-02 6.410E-04 2.706E+00
 ETOT  8  -182.26346462374     1.161E-04 5.879E-05 3.827E+00
 ETOT  9  -182.26389288948    -4.283E-04 4.400E-05 6.686E-03
 ETOT 10  -182.26389397946    -1.090E-06 1.100E-05 8.957E-06
 ETOT 11  -182.26389397772     1.748E-09 3.542E-06 5.124E-05
 ETOT 12  -182.26389398512    -7.407E-09 1.760E-06 1.485E-07
 
 At SCF step   12, etot is converged : 
  for the second time, diff in etot=  7.407E-09 < toldfe=  1.000E-06
 
 Cartesian components of stress tensor (hartree/bohr^3)
  sigma(1 1)= -4.52069975E-04  sigma(3 2)=  0.00000000E+00
  sigma(2 2)= -4.52069975E-04  sigma(3 1)=  0.00000000E+00
  sigma(3 3)= -4.52069975E-04  sigma(2 1)=  0.00000000E+00
 

--- !ResultsGS
iteration_state: {dtset: 1, itime: 1, icycle: 1, }
comment   : Summary of ground state results
lattice_vectors:
- [  0.0000000,   5.1085000,   5.1085000, ]
- [  5.1085000,   0.0000000,   5.1085000, ]
- [  5.1085000,   5.1085000,   0.0000000, ]
lattice_lengths: [   7.22451,    7.22451,    7.22451, ]
lattice_angles: [ 60.000,  60.000,  60.000, ] # degrees, (23, 13, 12)
lattice_volume:   2.6663072E+02
convergence: {deltae: -7.407E-09, res2:  1.485E-07, residm:  1.760E-06, diffor: null, }
etotal    :  -1.82263894E+02
entropy   :   0.00000000E+00
fermie    :   1.94620024E-01
cartesian_stress_tensor: # hartree/bohr^3
- [ -4.52069975E-04,   0.00000000E+00,   0.00000000E+00, ]
- [  0.00000000E+00,  -4.52069975E-04,   0.00000000E+00, ]
- [  0.00000000E+00,   0.00000000E+00,  -4.52069975E-04, ]
pressure_GPa:   1.3300E+01
xred      :
- [  0.0000E+00,   0.0000E+00,   0.0000E+00, Ga]
- [  2.5000E-01,   2.5000E-01,   2.5000E-01, As]
cartesian_forces: # hartree/bohr
- [  0.00000000E+00,   0.00000000E+00,   0.00000000E+00, ]
- [  0.00000000E+00,   0.00000000E+00,   0.00000000E+00, ]
force_length_stats: {min:   0.00000000E+00, max:   0.00000000E+00, mean:   0.00000000E+00, }
...

 Integrated electronic density in atomic spheres:
 ------------------------------------------------
 Atom  Sphere_radius  Integrated_density
    1        2.00000         10.91527915
    2        2.00000         12.46074150
 
---OUTPUT-----------------------------------------------------------------------
 
 Cartesian coordinates (xcart) [bohr]
  0.00000000000000E+00  0.00000000000000E+00  0.00000000000000E+00
  2.55425000000000E+00  2.55425000000000E+00  2.55425000000000E+00
 Reduced coordinates (xred)
  0.00000000000000E+00  0.00000000000000E+00  0.00000000000000E+00
  2.50000000000000E-01  2.50000000000000E-01  2.50000000000000E-01
 Cartesian forces (fcart) [Ha/bohr]; max,rms= 0.00000E+00 0.00000E+00 (free atoms)
  0.00000000000000E+00  0.00000000000000E+00  0.00000000000000E+00
  0.00000000000000E+00  0.00000000000000E+00  0.00000000000000E+00
 Gradient of E wrt nuclear positions in reduced coordinates (gred)
  0.00000000000000E+00  0.00000000000000E+00  0.00000000000000E+00
  0.00000000000000E+00  0.00000000000000E+00  0.00000000000000E+00
 Scale of Primitive Cell (acell) [bohr]
  1.02170000000000E+01  1.02170000000000E+01  1.02170000000000E+01
 Real space primitive translations (rprimd) [bohr]
  0.00000000000000E+00  5.10850000000000E+00  5.10850000000000E+00
  5.10850000000000E+00  0.00000000000000E+00  5.10850000000000E+00
  5.10850000000000E+00  5.10850000000000E+00  0.00000000000000E+00
 Unitary Cell Volume (ucvol) [Bohr^3]=  2.66630722078250E+02
 Angles (23,13,12)= [degrees]
  6.00000000000000E+01  6.00000000000000E+01  6.00000000000000E+01
 Lengths [Bohr]
  7.22450998338296E+00  7.22450998338296E+00  7.22450998338296E+00
 Stress tensor in cartesian coordinates (strten) [Ha/bohr^3]
 -4.52069974897197E-04  0.00000000000000E+00  0.00000000000000E+00
  0.00000000000000E+00 -4.52069974897197E-04  0.00000000000000E+00
  0.00000000000000E+00  0.00000000000000E+00 -4.52069974897194E-04
 Total energy (etotal) [Ha]= -1.82263893985123E+02
 
--- Iteration: ( 2/10) Internal Cycle: (1/1)
--------------------------------------------------------------------------------
 
---SELF-CONSISTENT-FIELD CONVERGENCE--------------------------------------------

--- !BeginCycle
iteration_state: {dtset: 1, itime: 2, icycle: 1, }
solver: {iscf: 7, nstep: 20, nline: 4, wfoptalg: 0, }
tolerances: {toldfe: 1.00E-06, }
...
 
     iter   Etot(hartree)      deltaE(h)  residm     vres2
 ETOT  1  -182.21388943369    -1.822E+02 2.248E-04 6.461E+02
 ETOT  2  -182.26441427894    -5.052E-02 3.545E-04 1.834E+01
 ETOT  3  -182.26763734270    -3.223E-03 6.961E-05 3.303E+00
 ETOT  4  -182.26795702116    -3.197E-04 4.274E-05 1.763E-01
 ETOT  5  -182.26797521476    -1.819E-05 1.353E-05 6.819E-03
 ETOT  6  -182.26797559951    -3.848E-07 9.730E-06 4.244E-05
 ETOT  7  -182.26797560290    -3.396E-09 5.233E-06 1.430E-06
 
 At SCF step    7, etot is converged : 
  for the second time, diff in etot=  3.396E-09 < toldfe=  1.000E-06
 
 Cartesian components of stress tensor (hartree/bohr^3)
  sigma(1 1)= -2.91600505E-04  sigma(3 2)=  0.00000000E+00
  sigma(2 2)= -2.91600505E-04  sigma(3 1)=  0.00000000E+00
  sigma(3 3)= -2.91600505E-04  sigma(2 1)=  0.00000000E+00
 

--- !ResultsGS
iteration_state: {dtset: 1, itime: 2, icycle: 1, }
comment   : Summary of ground state results
lattice_vectors:
- [  0.0000000,   5.1777820,   5.1777820, ]
- [  5.1777820,   0.0000000,   5.1777820, ]
- [  5.1777820,   5.1777820,   0.0000000, ]
lattice_lengths: [   7.32249,    7.32249,    7.32249, ]
lattice_angles: [ 60.000,  60.000,  60.000, ] # degrees, (23, 13, 12)
lattice_volume:   2.7762673E+02
convergence: {deltae: -3.396E-09, res2:  1.430E-06, residm:  5.233E-06, diffor: null, }
etotal    :  -1.82267976E+02
entropy   :   0.00000000E+00
fermie    :   1.78717668E-01
cartesian_stress_tensor: # hartree/bohr^3
- [ -2.91600505E-04,   0.00000000E+00,   0.00000000E+00, ]
- [  0.00000000E+00,  -2.91600505E-04,   0.00000000E+00, ]
- [  0.00000000E+00,   0.00000000E+00,  -2.91600505E-04, ]
pressure_GPa:   8.5792E+00
xred      :
- [  0.0000E+00,   0.0000E+00,   0.0000E+00, Ga]
- [  2.5000E-01,   2.5000E-01,   2.5000E-01, As]
cartesian_forces: # hartree/bohr
- [ -5.20038355E-29,  -5.20038355E-29,   1.56011506E-28, ]
- [  5.20038355E-29,   5.20038355E-29,  -1.56011506E-28, ]
force_length_stats: {min:   1.72477210E-28, max:   1.72477210E-28, mean:   1.72477210E-28, }
...

 Integrated electronic density in atomic spheres:
 ------------------------------------------------
 Atom  Sphere_radius  Integrated_density
    1        2.00000         10.88399311
    2        2.00000         12.43574603
 
---OUTPUT-----------------------------------------------------------------------
 
 Cartesian coordinates (xcart) [bohr]
  0.00000000000000E+00  0.00000000000000E+00  0.00000000000000E+00
  2.58889099200143E+00  2.58889099200143E+00  2.58889099200143E+00
 Reduced coordinates (xred)
  0.00000000000000E+00  0.00000000000000E+00  0.00000000000000E+00
  2.50000000000000E-01  2.50000000000000E-01  2.50000000000000E-01
 Cartesian forces (fcart) [Ha/bohr]; max,rms= 1.56012E-28 9.95798E-29 (free atoms)
 -5.20038354545152E-29 -5.20038354545152E-29  1.56011506363546E-28
  5.20038354545152E-29  5.20038354545152E-29 -1.56011506363546E-28
 Gradient of E wrt nuclear positions in reduced coordinates (gred)
 -5.38529044630877E-28 -5.38529044630877E-28  5.38529044630877E-28
  5.38529044630877E-28  5.38529044630877E-28 -5.38529044630877E-28
 Scale of Primitive Cell (acell) [bohr]
  1.03555639680057E+01  1.03555639680057E+01  1.03555639680057E+01
 Real space primitive translations (rprimd) [bohr]
  0.00000000000000E+00  5.17778198400287E+00  5.17778198400287E+00
  5.17778198400287E+00  0.00000000000000E+00  5.17778198400287E+00
  5.17778198400287E+00  5.17778198400287E+00  0.00000000000000E+00
 Unitary Cell Volume (ucvol) [Bohr^3]=  2.77626728724540E+02
 Angles (23,13,12)= [degrees]
  6.00000000000000E+01  6.00000000000000E+01  6.00000000000000E+01
 Lengths [Bohr]
  7.32248950478793E+00  7.32248950478793E+00  7.32248950478793E+00
 Stress tensor in cartesian coordinates (strten) [Ha/bohr^3]
 -2.91600504531558E-04  0.00000000000000E+00  0.00000000000000E+00
  0.00000000000000E+00 -2.91600504531562E-04  0.00000000000000E+00
  0.00000000000000E+00  0.00000000000000E+00 -2.91600504531558E-04
 Total energy (etotal) [Ha]= -1.82267975602904E+02
 
 Difference of energy with previous step (new-old):
           Absolute (Ha)=-4.08162E-03
           Relative     =-2.23938E-05
 
--- Iteration: ( 3/10) Internal Cycle: (1/1)
--------------------------------------------------------------------------------
 
---SELF-CONSISTENT-FIELD CONVERGENCE--------------------------------------------

--- !BeginCycle
iteration_state: {dtset: 1, itime: 3, icycle: 1, }
solver: {iscf: 7, nstep: 20, nline: 4, wfoptalg: 0, }
tolerances: {toldfe: 1.00E-06, }
...
 
     iter   Etot(hartree)      deltaE(h)  residm     vres2
 ETOT  1  -182.00984327719    -1.820E+02 8.936E-04 2.886E+03
 ETOT  2  -182.25370293691    -2.439E-01 2.110E-03 8.404E+01
 ETOT  3  -182.27028521183    -1.658E-02 2.925E-04 1.253E+01
 ETOT  4  -182.27164149286    -1.356E-03 5.934E-05 7.339E-01
 ETOT  5  -182.27170778925    -6.630E-05 8.077E-05 3.879E-02
 ETOT  6  -182.27170979292    -2.004E-06 2.032E-05 2.506E-04
 ETOT  7  -182.27170981426    -2.134E-08 3.048E-05 4.640E-06
 ETOT  8  -182.27170981459    -3.260E-10 7.587E-06 3.716E-07
 
 At SCF step    8, etot is converged : 
  for the second time, diff in etot=  3.260E-10 < toldfe=  1.000E-06
 
 Cartesian components of stress tensor (hartree/bohr^3)
  sigma(1 1)= -4.40038486E-05  sigma(3 2)=  0.00000000E+00
  sigma(2 2)= -4.40038486E-05  sigma(3 1)=  0.00000000E+00
  sigma(3 3)= -4.40038486E-05  sigma(2 1)=  0.00000000E+00
 

--- !ResultsGS
iteration_state: {dtset: 1, itime: 3, icycle: 1, }
comment   : Summary of ground state results
lattice_vectors:
- [  0.0000000,   5.3194911,   5.3194911, ]
- [  5.3194911,   0.0000000,   5.3194911, ]
- [  5.3194911,   5.3194911,   0.0000000, ]
lattice_lengths: [   7.52290,    7.52290,    7.52290, ]
lattice_angles: [ 60.000,  60.000,  60.000, ] # degrees, (23, 13, 12)
lattice_volume:   3.0105113E+02
convergence: {deltae: -3.260E-10, res2:  3.716E-07, residm:  7.587E-06, diffor: null, }
etotal    :  -1.82271710E+02
entropy   :   0.00000000E+00
fermie    :   1.48931834E-01
cartesian_stress_tensor: # hartree/bohr^3
- [ -4.40038486E-05,   0.00000000E+00,   0.00000000E+00, ]
- [  0.00000000E+00,  -4.40038486E-05,   0.00000000E+00, ]
- [  0.00000000E+00,   0.00000000E+00,  -4.40038486E-05, ]
pressure_GPa:   1.2946E+00
xred      :
- [  4.7133E-29,   4.7133E-29,  -7.8555E-29, Ga]
- [  2.5000E-01,   2.5000E-01,   2.5000E-01, As]
cartesian_forces: # hartree/bohr
- [ -2.27783132E-28,  -2.27783132E-28,   6.83349395E-28, ]
- [  2.27783132E-28,   2.27783132E-28,  -6.83349395E-28, ]
force_length_stats: {min:   7.55471181E-28, max:   7.55471181E-28, mean:   7.55471181E-28, }
...

 Integrated electronic density in atomic spheres:
 ------------------------------------------------
 Atom  Sphere_radius  Integrated_density
    1        2.00000         10.82818523
    2        2.00000         12.39231941
 
---OUTPUT-----------------------------------------------------------------------
 
 Cartesian coordinates (xcart) [bohr]
 -1.67149982934750E-28 -1.67149982934750E-28  5.01449948804250E-28
  2.65974557090655E+00  2.65974557090655E+00  2.65974557090655E+00
 Reduced coordinates (xred)
  4.71332628851164E-29  4.71332628851164E-29 -7.85554381418606E-29
  2.50000000000000E-01  2.50000000000000E-01  2.50000000000000E-01
 Cartesian forces (fcart) [Ha/bohr]; max,rms= 6.83349E-28 4.36171E-28 (free atoms)
 -2.27783131528344E-28 -2.27783131528344E-28  6.83349394585031E-28
  2.27783131528344E-28  2.27783131528344E-28 -6.83349394585031E-28
 Gradient of E wrt nuclear positions in reduced coordinates (gred)
 -2.42338070083895E-27 -2.42338070083895E-27  2.42338070083895E-27
  2.42338070083895E-27  2.42338070083895E-27 -2.42338070083895E-27
 Scale of Primitive Cell (acell) [bohr]
  1.06389822836262E+01  1.06389822836262E+01  1.06389822836262E+01
 Real space primitive translations (rprimd) [bohr]
  0.00000000000000E+00  5.31949114181311E+00  5.31949114181311E+00
  5.31949114181311E+00  0.00000000000000E+00  5.31949114181311E+00
  5.31949114181311E+00  5.31949114181311E+00  0.00000000000000E+00
 Unitary Cell Volume (ucvol) [Bohr^3]=  3.01051132817303E+02
 Angles (23,13,12)= [degrees]
  6.00000000000000E+01  6.00000000000000E+01  6.00000000000000E+01
 Lengths [Bohr]
  7.52289651767564E+00  7.52289651767564E+00  7.52289651767564E+00
 Stress tensor in cartesian coordinates (strten) [Ha/bohr^3]
 -4.40038485732715E-05  0.00000000000000E+00  0.00000000000000E+00
  0.00000000000000E+00 -4.40038485732715E-05  0.00000000000000E+00
  0.00000000000000E+00  0.00000000000000E+00 -4.40038485732715E-05
 Total energy (etotal) [Ha]= -1.82271709814588E+02
 
 Difference of energy with previous step (new-old):
           Absolute (Ha)=-3.73421E-03
           Relative     =-2.04873E-05
 
--- Iteration: ( 4/10) Internal Cycle: (1/1)
--------------------------------------------------------------------------------
 
---SELF-CONSISTENT-FIELD CONVERGENCE--------------------------------------------

--- !BeginCycle
iteration_state: {dtset: 1, itime: 4, icycle: 1, }
solver: {iscf: 7, nstep: 20, nline: 4, wfoptalg: 0, }
tolerances: {toldfe: 1.00E-06, }
...
 
     iter   Etot(hartree)      deltaE(h)  residm     vres2
 ETOT  1  -182.26383569890    -1.823E+02 1.430E-04 9.124E+01
 ETOT  2  -182.27130776319    -7.472E-03 9.638E-05 2.983E+00
 ETOT  3  -182.27177683523    -4.691E-04 2.990E-05 5.850E-01
 ETOT  4  -182.27182572433    -4.889E-05 1.196E-04 2.592E-02
 ETOT  5  -182.27182872004    -2.996E-06 4.996E-06 1.830E-03
 ETOT  6  -182.27182884231    -1.223E-07 2.562E-05 1.148E-05
 ETOT  7  -182.27182884308    -7.636E-10 1.125E-06 3.313E-07
 
 At SCF step    7, etot is converged : 
  for the second time, diff in etot=  7.636E-10 < toldfe=  1.000E-06
 
 Cartesian components of stress tensor (hartree/bohr^3)
  sigma(1 1)= -5.63457717E-06  sigma(3 2)=  0.00000000E+00
  sigma(2 2)= -5.63457717E-06  sigma(3 1)=  0.00000000E+00
  sigma(3 3)= -5.63457717E-06  sigma(2 1)=  0.00000000E+00
 

--- !ResultsGS
iteration_state: {dtset: 1, itime: 4, icycle: 1, }
comment   : Summary of ground state results
lattice_vectors:
- [  0.0000000,   5.3472170,   5.3472170, ]
- [  5.3472170,   0.0000000,   5.3472170, ]
- [  5.3472170,   5.3472170,   0.0000000, ]
lattice_lengths: [   7.56211,    7.56211,    7.56211, ]
lattice_angles: [ 60.000,  60.000,  60.000, ] # degrees, (23, 13, 12)
lattice_volume:   3.0578305E+02
convergence: {deltae: -7.636E-10, res2:  3.313E-07, residm:  1.125E-06, diffor: null, }
etotal    :  -1.82271829E+02
entropy   :   0.00000000E+00
fermie    :   1.43499673E-01
cartesian_stress_tensor: # hartree/bohr^3
- [ -5.63457717E-06,   0.00000000E+00,   0.00000000E+00, ]
- [  0.00000000E+00,  -5.63457717E-06,   0.00000000E+00, ]
- [  0.00000000E+00,   0.00000000E+00,  -5.63457717E-06, ]
pressure_GPa:   1.6577E-01
xred      :
- [  1.3660E-28,   1.3660E-28,  -2.2767E-28, Ga]
- [  2.5000E-01,   2.5000E-01,   2.5000E-01, As]
cartesian_forces: # hartree/bohr
- [  2.01424048E-28,   2.01424048E-28,  -6.04272145E-28, ]
- [ -2.01424048E-28,  -2.01424048E-28,   6.04272145E-28, ]
force_length_stats: {min:   6.68047993E-28, max:   6.68047993E-28, mean:   6.68047993E-28, }
...

 Integrated electronic density in atomic spheres:
 ------------------------------------------------
 Atom  Sphere_radius  Integrated_density
    1        2.00000         10.82063811
    2        2.00000         12.37704621
 
---OUTPUT-----------------------------------------------------------------------
 
 Cartesian coordinates (xcart) [bohr]
 -4.86950963519846E-28 -4.86950963519846E-28  1.46085289055954E-27
  2.67360848285529E+00  2.67360848285529E+00  2.67360848285529E+00
 Reduced coordinates (xred)
  1.36599365607134E-28  1.36599365607134E-28 -2.27665609345223E-28
  2.50000000000000E-01  2.50000000000000E-01  2.50000000000000E-01
 Cartesian forces (fcart) [Ha/bohr]; max,rms= 6.04272E-28 3.85698E-28 (free atoms)
  2.01424048466421E-28  2.01424048466421E-28 -6.04272145399262E-28
 -2.01424048466421E-28 -2.01424048466421E-28  6.04272145399262E-28
 Gradient of E wrt nuclear positions in reduced coordinates (gred)
  2.15411617852351E-27  2.15411617852351E-27 -2.15411617852351E-27
 -2.15411617852351E-27 -2.15411617852351E-27  2.15411617852351E-27
 Scale of Primitive Cell (acell) [bohr]
  1.06944339314212E+01  1.06944339314212E+01  1.06944339314212E+01
 Real space primitive translations (rprimd) [bohr]
  0.00000000000000E+00  5.34721696571058E+00  5.34721696571058E+00
  5.34721696571058E+00  0.00000000000000E+00  5.34721696571058E+00
  5.34721696571058E+00  5.34721696571058E+00  0.00000000000000E+00
 Unitary Cell Volume (ucvol) [Bohr^3]=  3.05783054186679E+02
 Angles (23,13,12)= [degrees]
  6.00000000000000E+01  6.00000000000000E+01  6.00000000000000E+01
 Lengths [Bohr]
  7.56210675385941E+00  7.56210675385941E+00  7.56210675385941E+00
 Stress tensor in cartesian coordinates (strten) [Ha/bohr^3]
 -5.63457717278268E-06  0.00000000000000E+00  0.00000000000000E+00
  0.00000000000000E+00 -5.63457717278268E-06  0.00000000000000E+00
  0.00000000000000E+00  0.00000000000000E+00 -5.63457717279309E-06
 Total energy (etotal) [Ha]= -1.82271828843076E+02
 
 Difference of energy with previous step (new-old):
           Absolute (Ha)=-1.19028E-04
           Relative     =-6.53028E-07
 
--- Iteration: ( 5/10) Internal Cycle: (1/1)
--------------------------------------------------------------------------------
 
---SELF-CONSISTENT-FIELD CONVERGENCE--------------------------------------------

--- !BeginCycle
iteration_state: {dtset: 1, itime: 5, icycle: 1, }
solver: {iscf: 7, nstep: 20, nline: 4, wfoptalg: 0, }
tolerances: {toldfe: 1.00E-06, }
...
 
     iter   Etot(hartree)      deltaE(h)  residm     vres2
 ETOT  1  -182.27165912681    -1.823E+02 1.206E-06 1.966E+00
 ETOT  2  -182.27181921530    -1.601E-04 4.270E-06 6.794E-02
 ETOT  3  -182.27182929036    -1.008E-05 1.323E-06 1.354E-02
 ETOT  4  -182.27183037105    -1.081E-06 4.559E-06 5.545E-04
 ETOT  5  -182.27183043700    -6.595E-08 3.240E-07 4.389E-05
 ETOT  6  -182.27183044020    -3.192E-09 1.366E-06 2.641E-07
 
 At SCF step    6, etot is converged : 
  for the second time, diff in etot=  3.192E-09 < toldfe=  1.000E-06
 
 Cartesian components of stress tensor (hartree/bohr^3)
  sigma(1 1)=  1.00455553E-06  sigma(3 2)=  0.00000000E+00
  sigma(2 2)=  1.00455553E-06  sigma(3 1)=  0.00000000E+00
  sigma(3 3)=  1.00455553E-06  sigma(2 1)=  0.00000000E+00
 

--- !ResultsGS
iteration_state: {dtset: 1, itime: 5, icycle: 1, }
comment   : Summary of ground state results
lattice_vectors:
- [  0.0000000,   5.3513621,   5.3513621, ]
- [  5.3513621,   0.0000000,   5.3513621, ]
- [  5.3513621,   5.3513621,   0.0000000, ]
lattice_lengths: [   7.56797,    7.56797,    7.56797, ]
lattice_angles: [ 60.000,  60.000,  60.000, ] # degrees, (23, 13, 12)
lattice_volume:   3.0649473E+02
convergence: {deltae: -3.192E-09, res2:  2.641E-07, residm:  1.366E-06, diffor: null, }
etotal    :  -1.82271830E+02
entropy   :   0.00000000E+00
fermie    :   1.42697167E-01
cartesian_stress_tensor: # hartree/bohr^3
- [  1.00455553E-06,   0.00000000E+00,   0.00000000E+00, ]
- [  0.00000000E+00,   1.00455553E-06,   0.00000000E+00, ]
- [  0.00000000E+00,   0.00000000E+00,   1.00455553E-06, ]
pressure_GPa:  -2.9555E-02
xred      :
- [  6.8400E-29,   6.8400E-29,  -1.1400E-28, Ga]
- [  2.5000E-01,   2.5000E-01,   2.5000E-01, As]
cartesian_forces: # hartree/bohr
- [  2.01268026E-28,   2.01268026E-28,  -6.03804079E-28, ]
- [ -2.01268026E-28,  -2.01268026E-28,   6.03804079E-28, ]
force_length_stats: {min:   6.67530526E-28, max:   6.67530526E-28, mean:   6.67530526E-28, }
...

 Integrated electronic density in atomic spheres:
 ------------------------------------------------
 Atom  Sphere_radius  Integrated_density
    1        2.00000         10.82289129
    2        2.00000         12.38064618
 
---OUTPUT-----------------------------------------------------------------------
 
 Cartesian coordinates (xcart) [bohr]
 -2.44020524219446E-28 -2.44020524219446E-28  7.32061572658338E-28
  2.67568105183224E+00  2.67568105183224E+00  2.67568105183224E+00
 Reduced coordinates (xred)
  6.83995549616275E-29  6.83995549616274E-29 -1.13999258269379E-28
  2.50000000000000E-01  2.50000000000000E-01  2.50000000000000E-01
 Cartesian forces (fcart) [Ha/bohr]; max,rms= 6.03804E-28 3.85399E-28 (free atoms)
  2.01268026419706E-28  2.01268026419706E-28 -6.03804079259117E-28
 -2.01268026419706E-28 -2.01268026419706E-28  6.03804079259117E-28
 Gradient of E wrt nuclear positions in reduced coordinates (gred)
  2.15411617852351E-27  2.15411617852351E-27 -2.15411617852351E-27
 -2.15411617852351E-27 -2.15411617852351E-27  2.15411617852351E-27
 Scale of Primitive Cell (acell) [bohr]
  1.07027242073290E+01  1.07027242073290E+01  1.07027242073290E+01
 Real space primitive translations (rprimd) [bohr]
  0.00000000000000E+00  5.35136210366448E+00  5.35136210366448E+00
  5.35136210366448E+00  0.00000000000000E+00  5.35136210366448E+00
  5.35136210366448E+00  5.35136210366448E+00  0.00000000000000E+00
 Unitary Cell Volume (ucvol) [Bohr^3]=  3.06494730433851E+02
 Angles (23,13,12)= [degrees]
  6.00000000000000E+01  6.00000000000000E+01  6.00000000000000E+01
 Lengths [Bohr]
  7.56796886417172E+00  7.56796886417172E+00  7.56796886417172E+00
 Stress tensor in cartesian coordinates (strten) [Ha/bohr^3]
  1.00455553078346E-06  0.00000000000000E+00  0.00000000000000E+00
  0.00000000000000E+00  1.00455553078693E-06  0.00000000000000E+00
  0.00000000000000E+00  0.00000000000000E+00  1.00455553078346E-06
 Total energy (etotal) [Ha]= -1.82271830440196E+02
 
 Difference of energy with previous step (new-old):
           Absolute (Ha)=-1.59712E-06
           Relative     =-8.76230E-09
 
--- Iteration: ( 6/10) Internal Cycle: (1/1)
--------------------------------------------------------------------------------
 
---SELF-CONSISTENT-FIELD CONVERGENCE--------------------------------------------

--- !BeginCycle
iteration_state: {dtset: 1, itime: 6, icycle: 1, }
solver: {iscf: 7, nstep: 20, nline: 4, wfoptalg: 0, }
tolerances: {toldfe: 1.00E-06, }
...
 
     iter   Etot(hartree)      deltaE(h)  residm     vres2
 ETOT  1  -182.27182657355    -1.823E+02 7.605E-07 4.496E-02
 ETOT  2  -182.27183022885    -3.655E-06 2.107E-08 1.571E-03
 ETOT  3  -182.27183045928    -2.304E-07 4.105E-09 3.130E-04
 ETOT  4  -182.27183048405    -2.477E-08 3.243E-09 1.260E-05
 
 At SCF step    4, etot is converged : 
  for the second time, diff in etot=  2.477E-08 < toldfe=  1.000E-06
 
 Cartesian components of stress tensor (hartree/bohr^3)
  sigma(1 1)=  7.14150814E-07  sigma(3 2)=  0.00000000E+00
  sigma(2 2)=  7.14150814E-07  sigma(3 1)=  0.00000000E+00
  sigma(3 3)=  7.14150814E-07  sigma(2 1)=  0.00000000E+00
 

--- !ResultsGS
iteration_state: {dtset: 1, itime: 6, icycle: 1, }
comment   : Summary of ground state results
lattice_vectors:
- [  0.0000000,   5.3507337,   5.3507337, ]
- [  5.3507337,   0.0000000,   5.3507337, ]
- [  5.3507337,   5.3507337,   0.0000000, ]
lattice_lengths: [   7.56708,    7.56708,    7.56708, ]
lattice_angles: [ 60.000,  60.000,  60.000, ] # degrees, (23, 13, 12)
lattice_volume:   3.0638676E+02
convergence: {deltae: -2.477E-08, res2:  1.260E-05, residm:  3.243E-09, diffor: null, }
etotal    :  -1.82271830E+02
entropy   :   0.00000000E+00
fermie    :   1.42822695E-01
cartesian_stress_tensor: # hartree/bohr^3
- [  7.14150814E-07,   0.00000000E+00,   0.00000000E+00, ]
- [  0.00000000E+00,   7.14150814E-07,   0.00000000E+00, ]
- [  0.00000000E+00,   0.00000000E+00,   7.14150814E-07, ]
pressure_GPa:  -2.1011E-02
xred      :
- [  1.6832E-29,   1.6832E-29,  -2.8053E-29, Ga]
- [  2.5000E-01,   2.5000E-01,   2.5000E-01, As]
cartesian_forces: # hartree/bohr
- [  0.00000000E+00,   0.00000000E+00,   0.00000000E+00, ]
- [  0.00000000E+00,   0.00000000E+00,   0.00000000E+00, ]
force_length_stats: {min:   0.00000000E+00, max:   0.00000000E+00, mean:   0.00000000E+00, }
...

 Integrated electronic density in atomic spheres:
 ------------------------------------------------
 Atom  Sphere_radius  Integrated_density
    1        2.00000         10.82252402
    2        2.00000         12.38012195
 
---OUTPUT-----------------------------------------------------------------------
 
 Cartesian coordinates (xcart) [bohr]
 -6.00408615462235E-29 -6.00408615462233E-29  1.80122584638670E-28
  2.67536683584395E+00  2.67536683584395E+00  2.67536683584395E+00
 Reduced coordinates (xred)
  1.68315782181184E-29  1.68315782181184E-29 -2.80526303635307E-29
  2.50000000000000E-01  2.50000000000000E-01  2.50000000000000E-01
 Cartesian forces (fcart) [Ha/bohr]; max,rms= 0.00000E+00 0.00000E+00 (free atoms)
  0.00000000000000E+00  0.00000000000000E+00  0.00000000000000E+00
  0.00000000000000E+00  0.00000000000000E+00  0.00000000000000E+00
 Gradient of E wrt nuclear positions in reduced coordinates (gred)
  0.00000000000000E+00  0.00000000000000E+00  0.00000000000000E+00
  0.00000000000000E+00  0.00000000000000E+00  0.00000000000000E+00
 Scale of Primitive Cell (acell) [bohr]
  1.07014673433758E+01  1.07014673433758E+01  1.07014673433758E+01
 Real space primitive translations (rprimd) [bohr]
  0.00000000000000E+00  5.35073367168791E+00  5.35073367168791E+00
  5.35073367168791E+00  0.00000000000000E+00  5.35073367168791E+00
  5.35073367168791E+00  5.35073367168791E+00  0.00000000000000E+00
 Unitary Cell Volume (ucvol) [Bohr^3]=  3.06386764386713E+02
 Angles (23,13,12)= [degrees]
  6.00000000000000E+01  6.00000000000000E+01  6.00000000000000E+01
 Lengths [Bohr]
  7.56708012714743E+00  7.56708012714743E+00  7.56708012714743E+00
 Stress tensor in cartesian coordinates (strten) [Ha/bohr^3]
  7.14150813797831E-07  0.00000000000000E+00  0.00000000000000E+00
  0.00000000000000E+00  7.14150813797831E-07  0.00000000000000E+00
  0.00000000000000E+00  0.00000000000000E+00  7.14150813794362E-07
 Total energy (etotal) [Ha]= -1.82271830484051E+02
 
 Difference of energy with previous step (new-old):
           Absolute (Ha)=-4.38550E-08
           Relative     =-2.40602E-10
 
--- Iteration: ( 7/10) Internal Cycle: (1/1)
--------------------------------------------------------------------------------
 
---SELF-CONSISTENT-FIELD CONVERGENCE--------------------------------------------

--- !BeginCycle
iteration_state: {dtset: 1, itime: 7, icycle: 1, }
solver: {iscf: 7, nstep: 20, nline: 4, wfoptalg: 0, }
tolerances: {toldfe: 1.00E-06, }
...
 
     iter   Etot(hartree)      deltaE(h)  residm     vres2
 ETOT  1  -182.27180656706    -1.823E+02 4.891E-06 2.712E-01
 ETOT  2  -182.27182860726    -2.204E-05 3.854E-07 9.420E-03
 ETOT  3  -182.27183000397    -1.397E-06 1.019E-07 1.910E-03
 ETOT  4  -182.27183015643    -1.525E-07 3.878E-07 7.871E-05
 ETOT  5  -182.27183016586    -9.429E-09 2.190E-08 6.034E-06
 
 At SCF step    5, etot is converged : 
  for the second time, diff in etot=  9.429E-09 < toldfe=  1.000E-06
 
 Cartesian components of stress tensor (hartree/bohr^3)
  sigma(1 1)= -2.27793582E-06  sigma(3 2)=  0.00000000E+00
  sigma(2 2)= -2.27793582E-06  sigma(3 1)=  0.00000000E+00
  sigma(3 3)= -2.27793582E-06  sigma(2 1)=  0.00000000E+00
 

--- !ResultsGS
iteration_state: {dtset: 1, itime: 7, icycle: 1, }
comment   : Summary of ground state results
lattice_vectors:
- [  0.0000000,   5.3491901,   5.3491901, ]
- [  5.3491901,   0.0000000,   5.3491901, ]
- [  5.3491901,   5.3491901,   0.0000000, ]
lattice_lengths: [   7.56490,    7.56490,    7.56490, ]
lattice_angles: [ 60.000,  60.000,  60.000, ] # degrees, (23, 13, 12)
lattice_volume:   3.0612169E+02
convergence: {deltae: -9.429E-09, res2:  6.034E-06, residm:  2.190E-08, diffor: null, }
etotal    :  -1.82271830E+02
entropy   :   0.00000000E+00
fermie    :   1.43117960E-01
cartesian_stress_tensor: # hartree/bohr^3
- [ -2.27793582E-06,   0.00000000E+00,   0.00000000E+00, ]
- [  0.00000000E+00,  -2.27793582E-06,   0.00000000E+00, ]
- [  0.00000000E+00,   0.00000000E+00,  -2.27793582E-06, ]
pressure_GPa:   6.7019E-02
xred      :
- [  4.2227E-29,   4.2227E-29,  -7.0379E-29, Ga]
- [  2.5000E-01,   2.5000E-01,   2.5000E-01, As]
cartesian_forces: # hartree/bohr
- [  2.26518467E-28,   2.26518467E-28,  -6.79555401E-28, ]
- [ -2.26518467E-28,  -2.26518467E-28,   6.79555401E-28, ]
force_length_stats: {min:   7.51276763E-28, max:   7.51276763E-28, mean:   7.51276763E-28, }
...

 Integrated electronic density in atomic spheres:
 ------------------------------------------------
 Atom  Sphere_radius  Integrated_density
    1        2.00000         10.82173047
    2        2.00000         12.37874155
 
---OUTPUT-----------------------------------------------------------------------
 
 Cartesian coordinates (xcart) [bohr]
 -1.50587717062208E-28 -1.50587717062208E-28  4.51763151186622E-28
  2.67459507012121E+00  2.67459507012121E+00  2.67459507012121E+00
 Reduced coordinates (xred)
  4.22272474283508E-29  4.22272474283507E-29 -7.03787457139180E-29
  2.50000000000000E-01  2.50000000000000E-01  2.50000000000000E-01
 Cartesian forces (fcart) [Ha/bohr]; max,rms= 6.79555E-28 4.33750E-28 (free atoms)
  2.26518467029957E-28  2.26518467029957E-28 -6.79555401089870E-28
 -2.26518467029957E-28 -2.26518467029957E-28  6.79555401089870E-28
 Gradient of E wrt nuclear positions in reduced coordinates (gred)
  2.42338070083895E-27  2.42338070083895E-27 -2.42338070083895E-27
 -2.42338070083895E-27 -2.42338070083895E-27  2.42338070083895E-27
 Scale of Primitive Cell (acell) [bohr]
  1.06983802804849E+01  1.06983802804849E+01  1.06983802804849E+01
 Real space primitive translations (rprimd) [bohr]
  0.00000000000000E+00  5.34919014024243E+00  5.34919014024243E+00
  5.34919014024243E+00  0.00000000000000E+00  5.34919014024243E+00
  5.34919014024243E+00  5.34919014024243E+00  0.00000000000000E+00
 Unitary Cell Volume (ucvol) [Bohr^3]=  3.06121689786989E+02
 Angles (23,13,12)= [degrees]
  6.00000000000000E+01  6.00000000000000E+01  6.00000000000000E+01
 Lengths [Bohr]
  7.56489724404328E+00  7.56489724404328E+00  7.56489724404328E+00
 Stress tensor in cartesian coordinates (strten) [Ha/bohr^3]
 -2.27793582012817E-06  0.00000000000000E+00  0.00000000000000E+00
  0.00000000000000E+00 -2.27793582013164E-06  0.00000000000000E+00
  0.00000000000000E+00  0.00000000000000E+00 -2.27793582012817E-06
 Total energy (etotal) [Ha]= -1.82271830165861E+02
 
 Difference of energy with previous step (new-old):
           Absolute (Ha)= 3.18190E-07
           Relative     = 1.74569E-09
 
--- Iteration: ( 8/10) Internal Cycle: (1/1)
--------------------------------------------------------------------------------
 
---SELF-CONSISTENT-FIELD CONVERGENCE--------------------------------------------

--- !BeginCycle
iteration_state: {dtset: 1, itime: 8, icycle: 1, }
solver: {iscf: 7, nstep: 20, nline: 4, wfoptalg: 0, }
tolerances: {toldfe: 1.00E-06, }
...
 
     iter   Etot(hartree)      deltaE(h)  residm     vres2
 ETOT  1  -182.27181679263    -1.823E+02 3.627E-07 1.571E-01
 ETOT  2  -182.27182956617    -1.277E-05 1.027E-07 5.422E-03
 ETOT  3  -182.27183037145    -8.053E-07 3.072E-08 1.096E-03
 ETOT  4  -182.27183045918    -8.772E-08 1.668E-07 4.523E-05
 
 At SCF step    4, etot is converged : 
  for the second time, diff in etot=  8.772E-08 < toldfe=  1.000E-06
 
 Cartesian components of stress tensor (hartree/bohr^3)
  sigma(1 1)= -1.99475105E-06  sigma(3 2)=  0.00000000E+00
  sigma(2 2)= -1.99475105E-06  sigma(3 1)=  0.00000000E+00
  sigma(3 3)= -1.99475105E-06  sigma(2 1)=  0.00000000E+00
 

--- !ResultsGS
iteration_state: {dtset: 1, itime: 8, icycle: 1, }
comment   : Summary of ground state results
lattice_vectors:
- [  0.0000000,   5.3503650,   5.3503650, ]
- [  5.3503650,   0.0000000,   5.3503650, ]
- [  5.3503650,   5.3503650,   0.0000000, ]
lattice_lengths: [   7.56656,    7.56656,    7.56656, ]
lattice_angles: [ 60.000,  60.000,  60.000, ] # degrees, (23, 13, 12)
lattice_volume:   3.0632344E+02
convergence: {deltae: -8.772E-08, res2:  4.523E-05, residm:  1.668E-07, diffor: null, }
etotal    :  -1.82271830E+02
entropy   :   0.00000000E+00
fermie    :   1.42885043E-01
cartesian_stress_tensor: # hartree/bohr^3
- [ -1.99475105E-06,   0.00000000E+00,   0.00000000E+00, ]
- [  0.00000000E+00,  -1.99475105E-06,   0.00000000E+00, ]
- [  0.00000000E+00,   0.00000000E+00,  -1.99475105E-06, ]
pressure_GPa:   5.8688E-02
xred      :
- [  6.2630E-30,   6.2630E-30,  -1.0438E-29, Ga]
- [  2.5000E-01,   2.5000E-01,   2.5000E-01, As]
cartesian_forces: # hartree/bohr
- [  2.01305534E-28,   2.01305534E-28,  -6.03916603E-28, ]
- [ -2.01305534E-28,  -2.01305534E-28,   6.03916603E-28, ]
force_length_stats: {min:   6.67654926E-28, max:   6.67654926E-28, mean:   6.67654926E-28, }
...

 Integrated electronic density in atomic spheres:
 ------------------------------------------------
 Atom  Sphere_radius  Integrated_density
    1        2.00000         10.82239681
    2        2.00000         12.37974401
 
---OUTPUT-----------------------------------------------------------------------
 
 Cartesian coordinates (xcart) [bohr]
 -2.23394035028040E-29 -2.23394035028038E-29  6.70182105084108E-29
  2.67518250950107E+00  2.67518250950107E+00  2.67518250950107E+00
 Reduced coordinates (xred)
  6.26295685157852E-30  6.26295685157849E-30 -1.04382614192976E-29
  2.50000000000000E-01  2.50000000000000E-01  2.50000000000000E-01
 Cartesian forces (fcart) [Ha/bohr]; max,rms= 6.03917E-28 3.85471E-28 (free atoms)
  2.01305534376911E-28  2.01305534376911E-28 -6.03916603130732E-28
 -2.01305534376911E-28 -2.01305534376911E-28  6.03916603130732E-28
 Gradient of E wrt nuclear positions in reduced coordinates (gred)
  2.15411617852351E-27  2.15411617852351E-27 -2.15411617852351E-27
 -2.15411617852351E-27 -2.15411617852351E-27  2.15411617852351E-27
 Scale of Primitive Cell (acell) [bohr]
  1.07007300380043E+01  1.07007300380043E+01  1.07007300380043E+01
 Real space primitive translations (rprimd) [bohr]
  0.00000000000000E+00  5.35036501900213E+00  5.35036501900213E+00
  5.35036501900213E+00  0.00000000000000E+00  5.35036501900213E+00
  5.35036501900213E+00  5.35036501900213E+00  0.00000000000000E+00
 Unitary Cell Volume (ucvol) [Bohr^3]=  3.06323440815396E+02
 Angles (23,13,12)= [degrees]
  6.00000000000000E+01  6.00000000000000E+01  6.00000000000000E+01
 Lengths [Bohr]
  7.56655877351940E+00  7.56655877351940E+00  7.56655877351940E+00
 Stress tensor in cartesian coordinates (strten) [Ha/bohr^3]
 -1.99475105260374E-06  0.00000000000000E+00  0.00000000000000E+00
  0.00000000000000E+00 -1.99475105260374E-06  0.00000000000000E+00
  0.00000000000000E+00  0.00000000000000E+00 -1.99475105260721E-06
 Total energy (etotal) [Ha]= -1.82271830459175E+02
 
 Difference of energy with previous step (new-old):
           Absolute (Ha)=-2.93314E-07
           Relative     =-1.60921E-09
 
--- Iteration: ( 9/10) Internal Cycle: (1/1)
--------------------------------------------------------------------------------
 
---SELF-CONSISTENT-FIELD CONVERGENCE--------------------------------------------

--- !BeginCycle
iteration_state: {dtset: 1, itime: 9, icycle: 1, }
solver: {iscf: 7, nstep: 20, nline: 4, wfoptalg: 0, }
tolerances: {toldfe: 1.00E-06, }
...
 
     iter   Etot(hartree)      deltaE(h)  residm     vres2
 ETOT  1  -182.27112702492    -1.823E+02 1.331E-05 7.955E+00
 ETOT  2  -182.27177729262    -6.503E-04 1.113E-05 2.733E-01
 ETOT  3  -182.27181833513    -4.104E-05 2.012E-06 5.461E-02
 ETOT  4  -182.27182273005    -4.395E-06 1.164E-05 2.261E-03
 ETOT  5  -182.27182299706    -2.670E-07 4.166E-07 1.768E-04
 ETOT  6  -182.27182300978    -1.272E-08 1.368E-06 1.077E-06
 
 At SCF step    6, etot is converged : 
  for the second time, diff in etot=  1.272E-08 < toldfe=  1.000E-06
 
 Cartesian components of stress tensor (hartree/bohr^3)
  sigma(1 1)=  1.09380594E-05  sigma(3 2)=  0.00000000E+00
  sigma(2 2)=  1.09380594E-05  sigma(3 1)=  0.00000000E+00
  sigma(3 3)=  1.09380594E-05  sigma(2 1)=  0.00000000E+00
 

--- !ResultsGS
iteration_state: {dtset: 1, itime: 9, icycle: 1, }
comment   : Summary of ground state results
lattice_vectors:
- [  0.0000000,   5.3586849,   5.3586849, ]
- [  5.3586849,   0.0000000,   5.3586849, ]
- [  5.3586849,   5.3586849,   0.0000000, ]
lattice_lengths: [   7.57832,    7.57832,    7.57832, ]
lattice_angles: [ 60.000,  60.000,  60.000, ] # degrees, (23, 13, 12)
lattice_volume:   3.0775468E+02
convergence: {deltae: -1.272E-08, res2:  1.077E-06, residm:  1.368E-06, diffor: null, }
etotal    :  -1.82271823E+02
entropy   :   0.00000000E+00
fermie    :   1.41286457E-01
cartesian_stress_tensor: # hartree/bohr^3
- [  1.09380594E-05,   0.00000000E+00,   0.00000000E+00, ]
- [  0.00000000E+00,   1.09380594E-05,   0.00000000E+00, ]
- [  0.00000000E+00,   0.00000000E+00,   1.09380594E-05, ]
pressure_GPa:  -3.2181E-01
xred      :
- [ -2.5553E-28,  -2.5553E-28,   4.2588E-28, Ga]
- [  2.5000E-01,   2.5000E-01,   2.5000E-01, As]
cartesian_forces: # hartree/bohr
- [  1.50744740E-28,   1.50744740E-28,  -4.52234220E-28, ]
- [ -1.50744740E-28,  -1.50744740E-28,   4.52234220E-28, ]
force_length_stats: {min:   4.99963742E-28, max:   4.99963742E-28, mean:   4.99963742E-28, }
...

 Integrated electronic density in atomic spheres:
 ------------------------------------------------
 Atom  Sphere_radius  Integrated_density
    1        2.00000         10.82686433
    2        2.00000         12.36795289
 
---OUTPUT-----------------------------------------------------------------------
 
 Cartesian coordinates (xcart) [bohr]
  9.12856173913163E-28  9.12856173913164E-28 -2.73856852173949E-27
  2.67934246661830E+00  2.67934246661830E+00  2.67934246661830E+00
 Reduced coordinates (xred)
 -2.55526174412107E-28 -2.55526174412107E-28  4.25876957353511E-28
  2.50000000000000E-01  2.50000000000000E-01  2.50000000000000E-01
 Cartesian forces (fcart) [Ha/bohr]; max,rms= 4.52234E-28 2.88654E-28 (free atoms)
  1.50744739989484E-28  1.50744739989484E-28 -4.52234219968451E-28
 -1.50744739989484E-28 -1.50744739989484E-28  4.52234219968451E-28
 Gradient of E wrt nuclear positions in reduced coordinates (gred)
  1.61558713389263E-27  1.61558713389263E-27 -1.61558713389263E-27
 -1.61558713389263E-27 -1.61558713389263E-27  1.61558713389263E-27
 Scale of Primitive Cell (acell) [bohr]
  1.07173698664732E+01  1.07173698664732E+01  1.07173698664732E+01
 Real space primitive translations (rprimd) [bohr]
  0.00000000000000E+00  5.35868493323660E+00  5.35868493323660E+00
  5.35868493323660E+00  0.00000000000000E+00  5.35868493323660E+00
  5.35868493323660E+00  5.35868493323660E+00  0.00000000000000E+00
 Unitary Cell Volume (ucvol) [Bohr^3]=  3.07754679560461E+02
 Angles (23,13,12)= [degrees]
  6.00000000000000E+01  6.00000000000000E+01  6.00000000000000E+01
 Lengths [Bohr]
  7.57832490906757E+00  7.57832490906757E+00  7.57832490906757E+00
 Stress tensor in cartesian coordinates (strten) [Ha/bohr^3]
  1.09380594110302E-05  0.00000000000000E+00  0.00000000000000E+00
  0.00000000000000E+00  1.09380594110267E-05  0.00000000000000E+00
  0.00000000000000E+00  0.00000000000000E+00  1.09380594110232E-05
 Total energy (etotal) [Ha]= -1.82271823009777E+02
 
 Difference of energy with previous step (new-old):
           Absolute (Ha)= 7.44940E-06
           Relative     = 4.08697E-08
 
--- Iteration: (10/10) Internal Cycle: (1/1)
--------------------------------------------------------------------------------
 
---SELF-CONSISTENT-FIELD CONVERGENCE--------------------------------------------

--- !BeginCycle
iteration_state: {dtset: 1, itime: 10, icycle: 1, }
solver: {iscf: 7, nstep: 20, nline: 4, wfoptalg: 0, }
tolerances: {toldfe: 1.00E-06, }
...
 
     iter   Etot(hartree)      deltaE(h)  residm     vres2
 ETOT  1  -182.27134527812    -1.823E+02 1.344E-04 5.585E+00
 ETOT  2  -182.27179848960    -4.532E-04 7.025E-06 1.981E-01
 ETOT  3  -182.27182708454    -2.859E-05 9.726E-07 3.964E-02
 ETOT  4  -182.27183018959    -3.105E-06 7.848E-06 1.563E-03
 ETOT  5  -182.27183037720    -1.876E-07 1.840E-07 1.313E-04
 ETOT  6  -182.27183038716    -9.964E-09 1.676E-07 7.734E-07
 
 At SCF step    6, etot is converged : 
  for the second time, diff in etot=  9.964E-09 < toldfe=  1.000E-06
 
 Cartesian components of stress tensor (hartree/bohr^3)
  sigma(1 1)=  1.18541841E-06  sigma(3 2)=  0.00000000E+00
  sigma(2 2)=  1.18541841E-06  sigma(3 1)=  0.00000000E+00
  sigma(3 3)=  1.18541841E-06  sigma(2 1)=  0.00000000E+00
 

--- !ResultsGS
iteration_state: {dtset: 1, itime: 10, icycle: 1, }
comment   : Summary of ground state results
lattice_vectors:
- [  0.0000000,   5.3516432,   5.3516432, ]
- [  5.3516432,   0.0000000,   5.3516432, ]
- [  5.3516432,   5.3516432,   0.0000000, ]
lattice_lengths: [   7.56837,    7.56837,    7.56837, ]
lattice_angles: [ 60.000,  60.000,  60.000, ] # degrees, (23, 13, 12)
lattice_volume:   3.0654304E+02
convergence: {deltae: -9.964E-09, res2:  7.734E-07, residm:  1.676E-07, diffor: null, }
etotal    :  -1.82271830E+02
entropy   :   0.00000000E+00
fermie    :   1.42645452E-01
cartesian_stress_tensor: # hartree/bohr^3
- [  1.18541841E-06,   0.00000000E+00,   0.00000000E+00, ]
- [  0.00000000E+00,   1.18541841E-06,   0.00000000E+00, ]
- [  0.00000000E+00,   0.00000000E+00,   1.18541841E-06, ]
pressure_GPa:  -3.4876E-02
xred      :
- [ -9.3486E-29,  -9.3486E-29,   1.5581E-28, Ga]
- [  2.5000E-01,   2.5000E-01,   2.5000E-01, As]
cartesian_forces: # hartree/bohr
- [  0.00000000E+00,   0.00000000E+00,   0.00000000E+00, ]
- [  0.00000000E+00,   0.00000000E+00,   0.00000000E+00, ]
force_length_stats: {min:   0.00000000E+00, max:   0.00000000E+00, mean:   0.00000000E+00, }
...

 Integrated electronic density in atomic spheres:
 ------------------------------------------------
 Atom  Sphere_radius  Integrated_density
    1        2.00000         10.82304183
    2        2.00000         12.38089636
 
---OUTPUT-----------------------------------------------------------------------
 
 Cartesian coordinates (xcart) [bohr]
  3.33536332879407E-28  3.33536332879408E-28 -1.00060899863822E-27
  2.67582161395338E+00  2.67582161395338E+00  2.67582161395338E+00
 Reduced coordinates (xred)
 -9.34861458458619E-29 -9.34861458458621E-29  1.55810243076437E-28
  2.50000000000000E-01  2.50000000000000E-01  2.50000000000000E-01
 Cartesian forces (fcart) [Ha/bohr]; max,rms= 0.00000E+00 0.00000E+00 (free atoms)
  0.00000000000000E+00  0.00000000000000E+00  0.00000000000000E+00
  0.00000000000000E+00  0.00000000000000E+00  0.00000000000000E+00
 Gradient of E wrt nuclear positions in reduced coordinates (gred)
  0.00000000000000E+00  0.00000000000000E+00  0.00000000000000E+00
  0.00000000000000E+00  0.00000000000000E+00  0.00000000000000E+00
 Scale of Primitive Cell (acell) [bohr]
  1.07032864558135E+01  1.07032864558135E+01  1.07032864558135E+01
 Real space primitive translations (rprimd) [bohr]
  0.00000000000000E+00  5.35164322790675E+00  5.35164322790675E+00
  5.35164322790675E+00  0.00000000000000E+00  5.35164322790675E+00
  5.35164322790675E+00  5.35164322790675E+00  0.00000000000000E+00
 Unitary Cell Volume (ucvol) [Bohr^3]=  3.06543036429794E+02
 Angles (23,13,12)= [degrees]
  6.00000000000000E+01  6.00000000000000E+01  6.00000000000000E+01
 Lengths [Bohr]
  7.56836643388786E+00  7.56836643388786E+00  7.56836643388786E+00
 Stress tensor in cartesian coordinates (strten) [Ha/bohr^3]
  1.18541841109474E-06  0.00000000000000E+00  0.00000000000000E+00
  0.00000000000000E+00  1.18541841109474E-06  0.00000000000000E+00
  0.00000000000000E+00  0.00000000000000E+00  1.18541841109474E-06
 Total energy (etotal) [Ha]= -1.82271830387165E+02
 
 Difference of energy with previous step (new-old):
           Absolute (Ha)=-7.37739E-06
           Relative     =-4.04746E-08
 
 fconv : WARNING -
  ntime=   10 was not enough Broyd/MD steps to converge gradients: 
  max grad (force/stress) = 1.1854E-04 > tolmxf= 5.0000E-05 ha/bohr (free atoms)
 
================================================================================
 
 ----iterations are completed or convergence reached----
 
 Mean square residual over all n,k,spin=   13.781E-10; max=  16.763E-08
 reduced coordinates (array xred) for    2 atoms
      -0.000000000000     -0.000000000000      0.000000000000
       0.250000000000      0.250000000000      0.250000000000
 rms dE/dt=  0.0000E+00; max dE/dt=  0.0000E+00; dE/dt below (all hartree)
    1       0.000000000000      0.000000000000      0.000000000000
    2       0.000000000000      0.000000000000      0.000000000000
 
 cartesian coordinates (angstrom) at end:
    1      0.00000000000000     0.00000000000000    -0.00000000000000
    2      1.41598381235664     1.41598381235664     1.41598381235664
 
 cartesian forces (hartree/bohr) at end:
    1      0.00000000000000     0.00000000000000     0.00000000000000
    2      0.00000000000000     0.00000000000000     0.00000000000000
 frms,max,avg= 0.0000000E+00 0.0000000E+00   0.000E+00  0.000E+00  0.000E+00 h/b
 
 cartesian forces (eV/Angstrom) at end:
    1      0.00000000000000     0.00000000000000     0.00000000000000
    2      0.00000000000000     0.00000000000000     0.00000000000000
 frms,max,avg= 0.0000000E+00 0.0000000E+00   0.000E+00  0.000E+00  0.000E+00 e/A
 length scales= 10.703286455814 10.703286455814 10.703286455814 bohr
              =  5.663935249427  5.663935249427  5.663935249427 angstroms
 prteigrs : about to open file acello_DS1_EIG
 Fermi (or HOMO) energy (eV) =   3.88158   Average Vxc (eV)= -10.14909
 Eigenvalues (   eV  ) for nkpt=  10  k points:
 kpt#   1, nband= 15, wtk=  0.00800, kpt=  0.0000  0.0000  0.0000 (reduced coord)
 -31.30201  -31.30201  -31.30201  -31.29250  -31.29250  -10.93568  -10.93568  -10.93568
 -10.85909  -10.85909   -8.83279    3.88158    3.88158    3.88158    4.27972
 prteigrs : prtvol=0 or 1, do not print more k-points.
 

--- !EnergyTerms
iteration_state     : {dtset: 1, itime: 10, icycle: 1, }
comment             : Components of total free energy in Hartree
kinetic             :  1.38773234882858E+02
hartree             :  5.74102085485421E+01
xc                  : -4.42171132908054E+01
Ewald energy        : -9.89971955931688E+01
psp_core            :  4.86917690561855E+00
local_psp           : -1.49867178458921E+02
non_local_psp       : -9.02429633812873E+01
total_energy        : -1.82271830387165E+02
total_energy_eV     : -4.95986874352995E+03
band_energy         : -1.59219346395136E+01
...

 
 Cartesian components of stress tensor (hartree/bohr^3)
  sigma(1 1)=  1.18541841E-06  sigma(3 2)=  0.00000000E+00
  sigma(2 2)=  1.18541841E-06  sigma(3 1)=  0.00000000E+00
  sigma(3 3)=  1.18541841E-06  sigma(2 1)=  0.00000000E+00
 
-Cartesian components of stress tensor (GPa)         [Pressure= -3.4876E-02 GPa]
- sigma(1 1)=  3.48762079E-02  sigma(3 2)=  0.00000000E+00
- sigma(2 2)=  3.48762079E-02  sigma(3 1)=  0.00000000E+00
- sigma(3 3)=  3.48762079E-02  sigma(2 1)=  0.00000000E+00
 
== END DATASET(S) ==============================================================
================================================================================
  
 -outvars: echo values of variables after computation  --------
            acell      1.0703286456E+01  1.0703286456E+01  1.0703286456E+01 Bohr
              amu      6.97230000E+01  7.49215900E+01
           diemac      1.20000000E+01
          dilatmx      1.05000000E+00
             ecut      3.80000000E+01 Hartree
           ecutsm      5.00000000E-01 Hartree
           enunit           1
           etotal1    -1.8227183039E+02
            fcart1     0.0000000000E+00  0.0000000000E+00  0.0000000000E+00
                       0.0000000000E+00  0.0000000000E+00  0.0000000000E+00
-          fftalg         112
           ionmov           2
           istwfk        2    0    0    0    0    0    0    0    0    0
              ixc     -116133
           jdtset        1
              kpt      0.00000000E+00  0.00000000E+00  0.00000000E+00
                       2.00000000E-01  0.00000000E+00  0.00000000E+00
                       4.00000000E-01  0.00000000E+00  0.00000000E+00
                       2.00000000E-01  2.00000000E-01  0.00000000E+00
                       4.00000000E-01  2.00000000E-01  0.00000000E+00
                      -4.00000000E-01  2.00000000E-01  0.00000000E+00
                      -2.00000000E-01  2.00000000E-01  0.00000000E+00
                       4.00000000E-01  4.00000000E-01  0.00000000E+00
                      -4.00000000E-01  4.00000000E-01  0.00000000E+00
                      -4.00000000E-01  4.00000000E-01  2.00000000E-01
         kptrlatt        5    0    0      0    5    0      0    0    5
          kptrlen      3.61225499E+01
P           mkmem          10
            natom           2
            nband          15
           ndtset           1
           ndivsm          20
            ngfft          45      45      45
             nkpt          10
            nstep          20
             nsym          24
            ntime          10
           ntypat           2
              occ      2.000000  2.000000  2.000000  2.000000  2.000000  2.000000
                       2.000000  2.000000  2.000000  2.000000  2.000000  2.000000
                       2.000000  2.000000  0.000000
          optcell           1
            rprim      0.0000000000E+00  5.0000000000E-01  5.0000000000E-01
                       5.0000000000E-01  0.0000000000E+00  5.0000000000E-01
                       5.0000000000E-01  5.0000000000E-01  0.0000000000E+00
          spgroup         216
           strten1     1.1854184111E-06  1.1854184111E-06  1.1854184111E-06
                       0.0000000000E+00  0.0000000000E+00  0.0000000000E+00
           symrel      1  0  0   0  1  0   0  0  1       0 -1  1   0 -1  0   1 -1  0
                      -1  0  0  -1  0  1  -1  1  0       0  1 -1   1  0 -1   0  0 -1
                      -1  0  0  -1  1  0  -1  0  1       0 -1  1   1 -1  0   0 -1  0
                       1  0  0   0  0  1   0  1  0       0  1 -1   0  0 -1   1  0 -1
                      -1  0  1  -1  1  0  -1  0  0       0 -1  0   1 -1  0   0 -1  1
                       1  0 -1   0  0 -1   0  1 -1       0  1  0   0  0  1   1  0  0
                       1  0 -1   0  1 -1   0  0 -1       0 -1  0   0 -1  1   1 -1  0
                      -1  0  1  -1  0  0  -1  1  0       0  1  0   1  0  0   0  0  1
                       0  0 -1   0  1 -1   1  0 -1       1 -1  0   0 -1  1   0 -1  0
                       0  0  1   1  0  0   0  1  0      -1  1  0  -1  0  0  -1  0  1
                       0  0  1   0  1  0   1  0  0       1 -1  0   0 -1  0   0 -1  1
                       0  0 -1   1  0 -1   0  1 -1      -1  1  0  -1  0  1  -1  0  0
           toldfe      1.00000000E-06 Hartree
            typat      1  2
              wtk        0.00800    0.06400    0.06400    0.04800    0.19200    0.19200
                         0.09600    0.04800    0.09600    0.19200
           xangst      1.7649982560E-28  1.7649982560E-28 -5.2949947679E-28
                       1.4159838124E+00  1.4159838124E+00  1.4159838124E+00
            xcart      3.3353633288E-28  3.3353633288E-28 -1.0006089986E-27
                       2.6758216140E+00  2.6758216140E+00  2.6758216140E+00
             xred     -9.3486145846E-29 -9.3486145846E-29  1.5581024308E-28
                       2.5000000000E-01  2.5000000000E-01  2.5000000000E-01
            znucl       31.00000   33.00000
 
================================================================================


- Timing analysis has been suppressed with timopt=0



================================================================================

 Suggested references for the acknowledgment of ABINIT usage.

 The users of ABINIT have little formal obligations with respect to the ABINIT group
 (those specified in the GNU General Public License, http://www.gnu.org/copyleft/gpl.txt).
 However, it is common practice in the scientific literature,
 to acknowledge the efforts of people that have made the research possible.
 In this spirit, please find below suggested citations of work written by ABINIT developers,
 corresponding to implementations inside of ABINIT that you have used in the present run.
 Note also that it will be of great value to readers of publications presenting these results,
 to read papers enabling them to understand the theoretical formalism and details
 of the ABINIT implementation.
 For information on why they are suggested, see also https://docs.abinit.org/theory/acknowledgments.
-
- [1] Libxc: A library of exchange and correlation functionals for density functional theory.
- M.A.L. Marques, M.J.T. Oliveira, T. Burnus, Computer Physics Communications 183, 2227 (2012).
- Comment: to be cited when LibXC is used (negative value of ixc)
- Strong suggestion to cite this paper.
- DOI and bibtex: see https://docs.abinit.org/theory/bibliography/#marques2012
-
- [2] The Abinit project: Impact, environment and recent developments.
- Computer Phys. Comm. 248, 107042 (2020).
- X.Gonze, B. Amadon, G. Antonius, F.Arnardi, L.Baguet, J.-M.Beuken,
- J.Bieder, F.Bottin, J.Bouchet, E.Bousquet, N.Brouwer, F.Bruneval,
- G.Brunin, T.Cavignac, J.-B. Charraud, Wei Chen, M.Cote, S.Cottenier,
- J.Denier, G.Geneste, Ph.Ghosez, M.Giantomassi, Y.Gillet, O.Gingras,
- D.R.Hamann, G.Hautier, Xu He, N.Helbig, N.Holzwarth, Y.Jia, F.Jollet,
- W.Lafargue-Dit-Hauret, K.Lejaeghere, M.A.L.Marques, A.Martin, C.Martins,
- H.P.C. Miranda, F.Naccarato, K. Persson, G.Petretto, V.Planes, Y.Pouillon,
- S.Prokhorenko, F.Ricci, G.-M.Rignanese, A.H.Romero, M.M.Schmitt, M.Torrent,
- M.J.van Setten, B.Van Troeye, M.J.Verstraete, G.Zerah and J.W.Zwanzig
- Comment: the fifth generic paper describing the ABINIT project.
- Note that a version of this paper, that is not formatted for Computer Phys. Comm. 
- is available at https://www.abinit.org/sites/default/files/ABINIT20.pdf .
- The licence allows the authors to put it on the Web.
- DOI and bibtex: see https://docs.abinit.org/theory/bibliography/#gonze2020
-
- [3] Optimized norm-conserving Vanderbilt pseudopotentials.
- D.R. Hamann, Phys. Rev. B 88, 085117 (2013).
- Comment: Some pseudopotential generated using the ONCVPSP code were used.
- DOI and bibtex: see https://docs.abinit.org/theory/bibliography/#hamann2013
-
- [4] ABINIT: Overview, and focus on selected capabilities
- J. Chem. Phys. 152, 124102 (2020).
- A. Romero, D.C. Allan, B. Amadon, G. Antonius, T. Applencourt, L.Baguet,
- J.Bieder, F.Bottin, J.Bouchet, E.Bousquet, F.Bruneval,
- G.Brunin, D.Caliste, M.Cote,
- J.Denier, C. Dreyer, Ph.Ghosez, M.Giantomassi, Y.Gillet, O.Gingras,
- D.R.Hamann, G.Hautier, F.Jollet, G. Jomard,
- A.Martin, 
- H.P.C. Miranda, F.Naccarato, G.Petretto, N.A. Pike, V.Planes,
- S.Prokhorenko, T. Rangel, F.Ricci, G.-M.Rignanese, M.Royo, M.Stengel, M.Torrent,
- M.J.van Setten, B.Van Troeye, M.J.Verstraete, J.Wiktor, J.W.Zwanziger, and X.Gonze.
- Comment: a global overview of ABINIT, with focus on selected capabilities .
- Note that a version of this paper, that is not formatted for J. Chem. Phys 
- is available at https://www.abinit.org/sites/default/files/ABINIT20_JPC.pdf .
- The licence allows the authors to put it on the Web.
- DOI and bibtex: see https://docs.abinit.org/theory/bibliography/#romero2020
-
- [5] Recent developments in the ABINIT software package.
- Computer Phys. Comm. 205, 106 (2016).
- X.Gonze, F.Jollet, F.Abreu Araujo, D.Adams, B.Amadon, T.Applencourt,
- C.Audouze, J.-M.Beuken, J.Bieder, A.Bokhanchuk, E.Bousquet, F.Bruneval
- D.Caliste, M.Cote, F.Dahm, F.Da Pieve, M.Delaveau, M.Di Gennaro,
- B.Dorado, C.Espejo, G.Geneste, L.Genovese, A.Gerossier, M.Giantomassi,
- Y.Gillet, D.R.Hamann, L.He, G.Jomard, J.Laflamme Janssen, S.Le Roux,
- A.Levitt, A.Lherbier, F.Liu, I.Lukacevic, A.Martin, C.Martins,
- M.J.T.Oliveira, S.Ponce, Y.Pouillon, T.Rangel, G.-M.Rignanese,
- A.H.Romero, B.Rousseau, O.Rubel, A.A.Shukri, M.Stankovski, M.Torrent,
- M.J.Van Setten, B.Van Troeye, M.J.Verstraete, D.Waroquier, J.Wiktor,
- B.Xu, A.Zhou, J.W.Zwanziger.
- Comment: the fourth generic paper describing the ABINIT project.
- Note that a version of this paper, that is not formatted for Computer Phys. Comm. 
- is available at https://www.abinit.org/sites/default/files/ABINIT16.pdf .
- The licence allows the authors to put it on the Web.
- DOI and bibtex: see https://docs.abinit.org/theory/bibliography/#gonze2016
-
- Proc.   0 individual time (sec): cpu=       1064.3  wall=        195.8
 
================================================================================
 
 Calculation completed.
.Delivered   1 WARNINGs and   6 COMMENTs to log file.
+Overall time at end (sec) : cpu=       1064.3  wall=        195.8
